unknown system                          
   1.00000000000000     
     1.885818   -3.266173   -0.000057
     1.885818    3.266173    0.000057
     0.000000    0.000054    5.262074
   Pt   Se
     1     2
Direct
  0.000000  0.000000  0.000000
  0.333332  0.666668  0.246974
  0.666668  0.333332  0.753026
 
   36   36   48
  257.90      249.25      227.08      199.68      173.55      149.82      125.99      100.49      75.103      53.500    
  38.011      27.893      21.109      16.767      14.022      12.243      11.079      10.395      10.166      10.395    
  11.079      12.243      14.022      16.767      21.109      27.893      38.011      53.500      75.103      100.49    
  125.99      149.82      173.55      199.68      227.08      249.25      249.25      249.25      233.89      209.47    
  183.52      159.58      136.50      111.99      86.343      62.733      44.433      32.155      24.001      18.638    
  15.245      13.072      11.644      10.736      10.284      10.284      10.737      11.643      13.071      15.245    
  18.638      24.001      32.154      44.433      62.734      86.344      111.99      136.50      159.58      183.52    
  209.47      233.89      227.08      233.89      227.08      209.47      187.21      164.90      143.09      120.02    
  95.186      70.934      50.760      36.496      27.088      20.750      16.688      14.098      12.400      11.283    
  10.625      10.406      10.625      11.283      12.400      14.098      16.688      20.750      27.089      36.497    
  50.761      70.935      95.188      120.02      143.09      164.90      187.21      209.47      199.68      209.47    
  209.47      199.67      183.52      164.90      145.35      124.14      100.79      77.027      56.119      40.502    
  30.046      22.917      18.242      15.252      13.297      11.989      11.152      10.736      10.735      11.152    
  11.989      13.297      15.252      18.241      22.917      30.046      40.504      56.120      77.029      100.79    
  124.14      145.35      164.90      183.52      173.55      183.52      187.21      183.52      173.55      159.58    
  143.09      124.14      102.71      80.260      59.701      43.612      32.511      24.886      19.749      16.427    
  14.254      12.789      11.807      11.228      11.035      11.228      11.807      12.789      14.254      16.427    
  19.748      24.886      32.511      43.613      59.703      80.263      102.71      124.14      143.09      159.58    
  149.82      159.58      164.90      164.90      159.58      149.82      136.50      120.02      100.79      80.259    
  60.958      45.315      34.161      26.392      21.018      17.489      15.170      13.597      12.514      11.816    
  11.470      11.471      11.816      12.514      13.597      15.170      17.489      21.018      26.392      34.160    
  45.316      60.961      80.263      100.79      120.02      136.50      125.99      136.50      143.09      145.35    
  143.09      136.50      125.99      111.99      95.184      77.024      59.700      45.316      34.743      27.210    
  21.870      18.298      15.932      14.319      13.189      12.422      11.973      11.825      11.973      12.422    
  13.189      14.319      15.932      18.298      21.870      27.209      34.743      45.316      59.703      77.029    
  95.188      111.99      100.49      111.99      120.02      124.14      124.14      120.02      111.98      100.49    
  86.339      70.930      56.118      43.613      34.161      27.209      22.170      18.736      16.437      14.862    
  13.748      12.966      12.467      12.224      12.224      12.466      12.966      13.748      14.862      16.437    
  18.736      22.170      27.209      34.160      43.613      56.120      70.935      86.344      75.103      86.343    
  95.186      100.79      102.71      100.79      95.184      86.339      75.098      62.731      50.760      40.504    
  32.512      26.392      21.870      18.736      16.614      15.153      14.115      13.376      12.880      12.599    
  12.509      12.599      12.880      13.376      14.115      15.153      16.614      18.736      21.870      26.391    
  32.511      40.504      50.761      62.734      53.500      62.733      70.934      77.027      80.260      80.259    
  77.024      70.930      62.731      53.500      44.434      36.498      30.046      24.885      21.018      18.298    
  16.437      15.153      14.243      13.595      13.154      12.889      12.767      12.767      12.889      13.154    
  13.595      14.243      15.153      16.437      18.298      21.018      24.886      30.046      36.497      44.433    
  38.011      44.433      50.760      56.119      59.701      60.958      59.700      56.118      50.760      44.434    
  38.012      32.155      27.088      22.915      19.748      17.489      15.932      14.862      14.115      13.595    
  13.250      13.046      12.946      12.918      12.946      13.046      13.250      13.595      14.115      14.862    
  15.932      17.489      19.748      22.916      27.089      32.154      27.893      32.155      36.496      40.502    
  43.612      45.315      45.316      43.613      40.504      36.498      32.155      27.892      24.000      20.749    
  18.241      16.427      15.171      14.319      13.748      13.376      13.154      13.046      13.010      13.006    
  13.006      13.010      13.046      13.154      13.376      13.748      14.319      15.170      16.427      18.241    
  20.750      24.001      21.109      24.001      27.088      30.046      32.511      34.161      34.743      34.161    
  32.512      30.046      27.088      24.000      21.108      18.637      16.688      15.252      14.255      13.597    
  13.190      12.967      12.880      12.889      12.946      13.006      13.031      13.006      12.946      12.889    
  12.880      12.966      13.189      13.597      14.254      15.252      16.688      18.638      16.767      18.638    
  20.750      22.917      24.887      26.392      27.210      27.209      26.392      24.885      22.915      20.749    
  18.637      16.768      15.246      14.099      13.297      12.789      12.514      12.423      12.467      12.599    
  12.767      12.918      13.006      13.006      12.918      12.767      12.599      12.466      12.422      12.514    
  12.789      13.297      14.098      15.245      14.022      15.245      16.688      18.242      19.749      21.018    
  21.870      22.170      21.870      21.018      19.748      18.241      16.688      15.246      14.023      13.072    
  12.400      11.989      11.807      11.816      11.973      12.224      12.509      12.767      12.946      13.010    
  12.946      12.767      12.509      12.224      11.973      11.816      11.807      11.989      12.400      13.071    
  12.243      13.072      14.098      15.252      16.427      17.489      18.298      18.736      18.736      18.298    
  17.489      16.427      15.252      14.099      13.072      12.242      11.643      11.283      11.152      11.228    
  11.470      11.825      12.224      12.599      12.889      13.046      13.046      12.889      12.599      12.224    
  11.825      11.471      11.228      11.152      11.283      11.643      11.079      11.644      12.400      13.297    
  14.254      15.170      15.932      16.437      16.614      16.437      15.932      15.171      14.255      13.297    
  12.400      11.643      11.078      10.736      10.625      10.736      11.035      11.470      11.973      12.467    
  12.880      13.154      13.250      13.154      12.880      12.467      11.973      11.470      11.035      10.735    
  10.626      10.737      10.395      10.736      11.283      11.989      12.789      13.597      14.319      14.862    
  15.153      15.153      14.862      14.319      13.597      12.789      11.989      11.283      10.736      10.395    
  10.285      10.406      10.736      11.228      11.816      12.423      12.967      13.376      13.595      13.595    
  13.376      12.966      12.422      11.816      11.228      10.736      10.406      10.284      10.166      10.284    
  10.625      11.152      11.807      12.514      13.189      13.748      14.115      14.243      14.115      13.748    
  13.190      12.514      11.807      11.152      10.625      10.285      10.167      10.285      10.625      11.152    
  11.807      12.514      13.190      13.748      14.115      14.243      14.115      13.748      13.189      12.514    
  11.807      11.152      10.625      10.284      10.395      10.284      10.406      10.736      11.228      11.816    
  12.422      12.966      13.376      13.595      13.595      13.376      12.967      12.423      11.816      11.228    
  10.736      10.406      10.285      10.395      10.736      11.283      11.989      12.789      13.597      14.319    
  14.862      15.153      15.153      14.862      14.319      13.597      12.789      11.989      11.283      10.736    
  11.079      10.737      10.626      10.735      11.035      11.470      11.973      12.467      12.880      13.154    
  13.250      13.154      12.880      12.467      11.973      11.470      11.035      10.736      10.625      10.736    
  11.078      11.643      12.400      13.297      14.255      15.171      15.932      16.437      16.614      16.437    
  15.932      15.170      14.254      13.297      12.400      11.644      12.243      11.643      11.283      11.152    
  11.228      11.471      11.825      12.224      12.599      12.889      13.046      13.046      12.889      12.599    
  12.224      11.825      11.470      11.228      11.152      11.283      11.643      12.242      13.072      14.099    
  15.252      16.427      17.489      18.298      18.736      18.736      18.298      17.489      16.427      15.252    
  14.098      13.072      14.022      13.071      12.400      11.989      11.807      11.816      11.973      12.224    
  12.509      12.767      12.946      13.010      12.946      12.767      12.509      12.224      11.973      11.816    
  11.807      11.989      12.400      13.072      14.023      15.246      16.688      18.241      19.748      21.018    
  21.870      22.170      21.870      21.018      19.749      18.242      16.688      15.245      16.767      15.245    
  14.098      13.297      12.789      12.514      12.422      12.466      12.599      12.767      12.918      13.006    
  13.006      12.918      12.767      12.599      12.467      12.423      12.514      12.789      13.297      14.099    
  15.246      16.768      18.637      20.749      22.915      24.885      26.392      27.209      27.210      26.392    
  24.887      22.917      20.750      18.638      21.109      18.638      16.688      15.252      14.254      13.597    
  13.189      12.966      12.880      12.889      12.946      13.006      13.031      13.006      12.946      12.889    
  12.880      12.967      13.190      13.597      14.255      15.252      16.688      18.637      21.108      24.000    
  27.088      30.046      32.512      34.161      34.743      34.161      32.511      30.046      27.088      24.001    
  27.893      24.001      20.750      18.241      16.427      15.170      14.319      13.748      13.376      13.154    
  13.046      13.010      13.006      13.006      13.010      13.046      13.154      13.376      13.748      14.319    
  15.171      16.427      18.241      20.749      24.000      27.892      32.155      36.498      40.504      43.613    
  45.316      45.315      43.612      40.502      36.496      32.155      38.011      32.154      27.089      22.916    
  19.748      17.489      15.932      14.862      14.115      13.595      13.250      13.046      12.946      12.918    
  12.946      13.046      13.250      13.595      14.115      14.862      15.932      17.489      19.748      22.915    
  27.088      32.155      38.012      44.434      50.760      56.118      59.700      60.958      59.701      56.119    
  50.760      44.433      53.500      44.433      36.497      30.046      24.886      21.018      18.298      16.437    
  15.153      14.243      13.595      13.154      12.889      12.767      12.767      12.889      13.154      13.595    
  14.243      15.153      16.437      18.298      21.018      24.885      30.046      36.498      44.434      53.500    
  62.731      70.930      77.024      80.259      80.260      77.027      70.934      62.733      75.103      62.734    
  50.761      40.504      32.511      26.391      21.870      18.736      16.614      15.153      14.115      13.376    
  12.880      12.599      12.509      12.599      12.880      13.376      14.115      15.153      16.614      18.736    
  21.870      26.392      32.512      40.504      50.760      62.731      75.098      86.339      95.184      100.79    
  102.71      100.79      95.186      86.343      100.49      86.344      70.935      56.120      43.613      34.160    
  27.209      22.170      18.736      16.437      14.862      13.748      12.966      12.466      12.224      12.224    
  12.467      12.966      13.748      14.862      16.437      18.736      22.170      27.209      34.161      43.613    
  56.118      70.930      86.339      100.49      111.98      120.02      124.14      124.14      120.02      111.99    
  125.99      111.99      95.188      77.029      59.703      45.316      34.743      27.209      21.870      18.298    
  15.932      14.319      13.189      12.422      11.973      11.825      11.973      12.422      13.189      14.319    
  15.932      18.298      21.870      27.210      34.743      45.316      59.700      77.024      95.184      111.99    
  125.99      136.50      143.09      145.35      143.09      136.50      149.82      136.50      120.02      100.79    
  80.263      60.961      45.316      34.160      26.392      21.018      17.489      15.170      13.597      12.514    
  11.816      11.471      11.470      11.816      12.514      13.597      15.170      17.489      21.018      26.392    
  34.161      45.315      60.958      80.259      100.79      120.02      136.50      149.82      159.58      164.90    
  164.90      159.58      173.55      159.58      143.09      124.14      102.71      80.263      59.703      43.613    
  32.511      24.886      19.748      16.427      14.254      12.789      11.807      11.228      11.035      11.228    
  11.807      12.789      14.254      16.427      19.749      24.886      32.511      43.612      59.701      80.260    
  102.71      124.14      143.09      159.58      173.55      183.52      187.21      183.52      199.68      183.52    
  164.90      145.35      124.14      100.79      77.029      56.120      40.504      30.046      22.917      18.241    
  15.252      13.297      11.989      11.152      10.735      10.736      11.152      11.989      13.297      15.252    
  18.242      22.917      30.046      40.502      56.119      77.027      100.79      124.14      145.35      164.90    
  183.52      199.67      209.47      209.47      227.08      209.47      187.21      164.90      143.09      120.02    
  95.188      70.935      50.761      36.497      27.089      20.750      16.688      14.098      12.400      11.283    
  10.625      10.406      10.625      11.283      12.400      14.098      16.688      20.750      27.088      36.496    
  50.760      70.934      95.186      120.02      143.09      164.90      187.21      209.47      227.08      233.89    
  249.25      233.89      209.47      183.52      159.58      136.50      111.99      86.344      62.734      44.433    
  32.154      24.001      18.638      15.245      13.071      11.643      10.737      10.284      10.284      10.736    
  11.644      13.072      15.245      18.638      24.001      32.155      44.433      62.733      86.343      111.99    
  136.50      159.58      183.52      209.47      233.89      249.25      248.87      240.66      219.60      193.48    
  168.40      145.42      122.25      97.524      73.033      52.278      37.406      27.626      21.044      16.825    
  14.147      12.403      11.260      10.586      10.360      10.586      11.260      12.404      14.147      16.824    
  21.044      27.627      37.406      52.276      73.032      97.523      122.25      145.41      168.40      193.48    
  219.60      240.66      240.66      240.67      227.37      206.01      182.71      160.12      137.06      111.90    
  85.655      61.839      43.656      31.562      23.523      18.250      14.914      12.771      11.361      10.466    
  10.020      10.020      10.466      11.361      12.771      14.913      18.250      23.524      31.562      43.655    
  61.838      85.656      111.90      137.06      160.12      182.71      206.00      227.36      219.60      224.81    
  219.61      206.01      188.14      168.73      147.53      123.28      96.664      71.006      50.156      35.728    
  26.296      19.974      15.936      13.362      11.674      10.566      9.9169      9.6998      9.9163      10.567    
  11.675      13.362      15.935      19.974      26.297      35.728      50.155      71.007      96.665      123.28    
  147.53      168.73      188.14      206.00      193.48      199.67      199.67      193.48      182.71      168.73    
  151.34      129.65      104.26      78.316      55.966      39.723      29.051      21.827      17.121      14.118    
  12.157      10.850      10.018      9.6051      9.6043      10.017      10.850      12.158      14.118      17.120    
  21.827      29.052      39.724      55.967      78.317      104.26      129.65      151.34      168.73      182.71    
  168.40      173.29      174.94      173.28      168.40      160.12      147.53      129.65      106.98      82.392    
  60.024      42.934      31.411      23.569      18.326      14.948      12.742      11.259      10.272      9.6933    
  9.5011      9.6928      10.272      11.260      12.742      14.947      18.326      23.570      31.412      42.934    
  60.025      82.394      106.98      129.65      147.53      160.12      145.41      149.67      151.35      151.35    
  149.67      145.42      137.06      123.28      104.26      82.391      61.483      44.734      33.021      24.933    
  19.374      15.732      13.342      11.723      10.616      9.9074      9.5593      9.5593      9.9075      10.616    
  11.723      13.342      15.733      19.374      24.932      33.020      44.735      61.487      82.394      104.26    
  123.28      137.06      122.25      127.87      130.22      130.80      130.22      127.87      122.25      111.90    
  96.661      78.312      60.023      44.735      33.595      25.682      20.090      16.347      13.861      12.164    
  10.981      10.183      9.7197      9.5678      9.7194      10.183      10.981      12.164      13.861      16.347    
  20.090      25.682      33.595      44.736      60.026      78.316      96.664      111.90      97.522      105.41    
  109.62      111.26      111.26      109.62      105.41      97.520      85.651      71.002      55.965      42.934    
  33.021      25.682      20.344      16.685      14.213      12.507      11.299      10.457      9.9214      9.6626    
  9.6623      9.9210      10.457      11.300      12.507      14.213      16.685      20.345      25.682      33.020    
  42.934      55.967      71.007      85.655      73.032      82.072      88.146      91.398      92.386      91.398    
  88.145      82.069      73.028      61.836      50.155      39.725      31.412      24.932      20.089      16.685    
  14.337      12.694      11.515      10.673      10.109      9.7894      9.6866      9.7893      10.109      10.673    
  11.515      12.694      14.337      16.685      20.089      24.932      31.412      39.724      50.156      61.839    
  52.277      60.451      67.064      71.497      73.659      73.658      71.495      67.061      60.449      52.277    
  43.656      35.729      29.052      23.569      19.373      16.347      14.213      12.694      11.591      10.792    
  10.240      9.9021      9.7447      9.7447      9.9022      10.240      10.792      11.591      12.694      14.213    
  16.347      19.374      23.569      29.051      35.728      43.655      37.406      43.507      49.175      53.676    
  56.516      57.479      56.516      53.676      49.175      43.508      37.408      31.563      26.296      21.826    
  18.325      15.733      13.861      12.507      11.515      10.792      10.287      9.9674      9.7971      9.7448    
  9.7972      9.9674      10.287      10.792      11.515      12.507      13.861      15.733      18.326      21.827    
  26.296      31.562      27.626      31.967      36.209      39.957      42.753      44.242      44.243      42.755    
  39.959      36.210      31.968      27.626      23.523      19.973      17.120      14.948      13.342      12.164    
  11.299      10.673      10.241      9.9675      9.8177      9.7547      9.7548      9.8178      9.9674      10.240    
  10.673      11.300      12.164      13.342      14.948      17.120      19.974      23.524      21.044      24.189    
  27.438      30.463      32.923      34.534      35.097      34.535      32.924      30.464      27.438      24.188    
  21.043      18.249      15.935      14.119      12.743      11.723      10.981      10.457      10.109      9.9023    
  9.7972      9.7548      9.7446      9.7548      9.7971      9.9021      10.109      10.457      10.981      11.723    
  12.742      14.118      15.935      18.250      16.825      19.051      21.466      23.866      25.997      27.599    
  28.458      28.458      27.598      25.996      23.865      21.465      19.050      16.825      14.914      13.362    
  12.158      11.259      10.616      10.184      9.9215      9.7894      9.7447      9.7448      9.7548      9.7548    
  9.7448      9.7447      9.7893      9.9210      10.183      10.616      11.259      12.158      13.362      14.913    
  14.147      15.784      17.613      19.507      21.293      22.768      23.745      24.087      23.745      22.768    
  21.291      19.506      17.612      15.785      14.148      12.771      11.675      10.850      10.271      9.9076    
  9.7196      9.6623      9.6865      9.7446      9.7972      9.8177      9.7971      9.7447      9.6866      9.6623    
  9.7196      9.9077      10.272      10.850      11.675      12.770      12.403      13.677      15.136      16.695    
  18.230      19.584      20.601      21.147      21.147      20.601      19.584      18.230      16.696      15.137    
  13.677      12.403      11.360      10.566      10.017      9.6931      9.5592      9.5674      9.6623      9.7894    
  9.9023      9.9675      9.9674      9.9021      9.7893      9.6625      9.5678      9.5596      9.6933      10.017    
  10.567      11.361      11.260      12.283      13.498      14.839      16.210      17.484      18.525      19.209    
  19.447      19.209      18.525      17.484      16.210      14.840      13.498      12.282      11.259      10.465    
  9.9166      9.6048      9.5014      9.5592      9.7196      9.9215      10.109      10.240      10.287      10.240    
  10.109      9.9213      9.7195      9.5590      9.5011      9.6048      9.9170      10.466      10.586      11.393    
  12.411      13.585      14.833      16.048      17.109      17.897      18.317      18.318      17.897      17.109    
  16.048      14.833      13.585      12.412      11.393      10.586      10.020      9.7000      9.6048      9.6931    
  9.9076      10.184      10.457      10.673      10.792      10.792      10.673      10.457      10.183      9.9071    
  9.6928      9.6046      9.6998      10.020      10.360      10.949      11.769      12.777      13.901      15.049    
  16.111      16.974      17.537      17.732      17.537      16.974      16.112      15.049      13.901      12.776    
  11.769      10.950      10.361      10.020      9.9166      10.017      10.271      10.616      10.981      11.299    
  11.515      11.591      11.515      11.299      10.981      10.616      10.272      10.017      9.9161      10.019    
  10.586      10.949      11.554      12.372      13.347      14.399      15.428      16.325      16.990      17.344    
  17.344      16.990      16.325      15.428      14.399      13.347      12.372      11.554      10.950      10.586    
  10.465      10.566      10.850      11.259      11.723      12.164      12.507      12.694      12.694      12.507    
  12.164      11.724      11.259      10.850      10.566      10.465      11.260      11.394      11.769      12.371    
  13.162      14.076      15.025      15.909      16.629      17.099      17.263      17.100      16.629      15.910    
  15.025      14.075      13.162      12.372      11.769      11.393      11.259      11.360      11.675      12.158    
  12.743      13.342      13.861      14.213      14.337      14.213      13.861      13.342      12.742      12.158    
  11.675      11.361      12.404      12.283      12.412      12.776      13.347      14.076      14.892      15.708    
  16.428      16.966      17.254      17.254      16.966      16.428      15.707      14.891      14.075      13.347    
  12.776      12.412      12.282      12.403      12.771      13.362      14.119      14.948      15.733      16.347    
  16.685      16.685      16.347      15.732      14.947      14.118      13.362      12.772      14.147      13.677    
  13.498      13.586      13.901      14.399      15.025      15.707      16.365      16.912      17.274      17.401    
  17.274      16.912      16.364      15.707      15.025      14.399      13.901      13.585      13.498      13.677    
  14.148      14.914      15.935      17.120      18.325      19.373      20.089      20.344      20.090      19.374    
  18.326      17.121      15.935      14.913      16.824      15.784      15.136      14.840      14.833      15.049    
  15.427      15.909      16.428      16.912      17.287      17.492      17.492      17.287      16.912      16.428    
  15.910      15.428      15.049      14.833      14.840      15.137      15.785      16.825      18.249      19.973    
  21.826      23.569      24.932      25.682      25.682      24.933      23.570      21.828      19.974      18.249    
  21.044      19.051      17.612      16.695      16.210      16.048      16.111      16.325      16.629      16.966    
  17.274      17.492      17.570      17.492      17.274      16.966      16.629      16.325      16.112      16.048    
  16.210      16.696      17.612      19.050      21.043      23.523      26.296      29.052      31.412      33.021    
  33.595      33.021      31.411      29.051      26.296      23.524      27.627      24.189      21.466      19.506    
  18.229      17.484      17.109      16.974      16.990      17.099      17.254      17.402      17.492      17.492    
  17.401      17.254      17.100      16.990      16.974      17.109      17.484      18.230      19.506      21.465    
  24.188      27.626      31.563      35.729      39.725      42.934      44.735      44.734      42.933      39.723    
  35.728      31.563      37.406      31.968      27.438      23.866      21.292      19.585      18.525      17.897    
  17.537      17.344      17.263      17.254      17.274      17.287      17.274      17.254      17.263      17.344    
  17.537      17.897      18.525      19.584      21.291      23.865      27.438      31.968      37.408      43.656    
  50.155      55.965      60.023      61.484      60.024      55.966      50.155      43.655      52.277      43.507    
  36.209      30.464      25.997      22.768      20.601      19.209      18.317      17.732      17.344      17.099    
  16.966      16.912      16.912      16.966      17.099      17.344      17.732      18.318      19.209      20.601    
  22.768      25.996      30.464      36.210      43.509      52.277      61.835      71.002      78.312      82.391    
  82.392      78.316      71.006      61.838      73.033      60.452      49.175      39.958      32.923      27.598    
  23.745      21.147      19.447      18.317      17.537      16.990      16.629      16.428      16.365      16.428    
  16.629      16.990      17.537      18.317      19.447      21.147      23.745      27.598      32.924      39.959    
  49.175      60.449      73.028      85.651      96.661      104.26      106.98      104.26      96.665      85.655    
  97.524      82.074      67.065      53.677      42.754      34.533      28.458      24.088      21.147      19.209    
  17.897      16.974      16.325      15.909      15.707      15.708      15.909      16.325      16.974      17.897    
  19.209      21.147      24.087      28.458      34.535      42.755      53.676      67.061      82.069      97.520    
  111.90      123.28      129.65      129.65      123.28      111.90      122.25      105.42      88.149      71.500    
  56.519      44.243      35.096      28.458      23.745      20.601      18.525      17.109      16.111      15.427    
  15.025      14.892      15.025      15.428      16.111      17.109      18.525      20.601      23.745      28.458    
  35.097      44.243      56.516      71.495      88.145      105.41      122.25      137.06      147.53      151.34    
  147.53      137.06      145.42      127.88      109.62      91.401      73.662      57.483      44.243      34.534    
  27.598      22.768      19.585      17.484      16.047      15.049      14.399      14.076      14.076      14.399    
  15.049      16.048      17.484      19.584      22.769      27.599      34.534      44.242      57.479      73.658    
  91.398      109.62      127.87      145.42      160.12      168.73      168.73      160.12      168.40      149.67    