unknown system                          
   1.00000000000000     
     1.885818   -3.266173   -0.000057
     1.885818    3.266173    0.000057
     0.000000    0.000054    5.262074
   Pt   Se
     1     2
Direct
  0.000000  0.000000  0.000000
  0.333332  0.666668  0.246974
  0.666668  0.333332  0.753026
 
   36   36   48
 0.25790354815E+03 0.24924787281E+03 0.22707587804E+03 0.19967615756E+03 0.17355162225E+03
 0.14981507703E+03 0.12598695839E+03 0.10048927668E+03 0.75102706329E+02 0.53500176110E+02
 0.38010523354E+02 0.27892656580E+02 0.21109410643E+02 0.16767369658E+02 0.14022269545E+02
 0.12242539009E+02 0.11079371709E+02 0.10395121654E+02 0.10165746756E+02 0.10395121654E+02
 0.11079371709E+02 0.12242539009E+02 0.14022269545E+02 0.16767369658E+02 0.21109410643E+02
 0.27892656580E+02 0.38010523354E+02 0.53500176110E+02 0.75102706329E+02 0.10048927668E+03
 0.12598695839E+03 0.14981507703E+03 0.17355162225E+03 0.19967615756E+03 0.22707587804E+03
 0.24924787281E+03 0.24924785447E+03 0.24924969772E+03 0.23389422326E+03 0.20947335356E+03
 0.18351802233E+03 0.15957956626E+03 0.13649681805E+03 0.11198521993E+03 0.86342695350E+02
 0.62733284644E+02 0.44433138921E+02 0.32154566261E+02 0.24001125046E+02 0.18637627689E+02
 0.15245320534E+02 0.13071972516E+02 0.11643548760E+02 0.10736203698E+02 0.10283916675E+02
 0.10284308425E+02 0.10736795392E+02 0.11643479966E+02 0.13071385072E+02 0.15245061512E+02
 0.18637923741E+02 0.24001339283E+02 0.32154311028E+02 0.44433004528E+02 0.62733880045E+02
 0.86343873356E+02 0.11198669313E+03 0.13649870575E+03 0.15958152268E+03 0.18351849325E+03
 0.20947107580E+03 0.23389050387E+03 0.22707582980E+03 0.23389420493E+03 0.22707728308E+03
 0.20947238323E+03 0.18720967570E+03 0.16489600215E+03 0.14308522217E+03 0.12001543217E+03
 0.95186165577E+02 0.70933949028E+02 0.50760177435E+02 0.36496107447E+02 0.27088434700E+02
 0.20750260028E+02 0.16687984690E+02 0.14098038403E+02 0.12400166764E+02 0.11282723781E+02
 0.10625330550E+02 0.10405564540E+02 0.10625458044E+02 0.11282907783E+02 0.12400234376E+02
 0.14097854989E+02 0.16687663783E+02 0.20750103360E+02 0.27088615444E+02 0.36496583108E+02
 0.50761029552E+02 0.70935186568E+02 0.95187823705E+02 0.12001757889E+03 0.14308763341E+03
 0.16489783398E+03 0.18720992385E+03 0.20947105747E+03 0.19967611232E+03 0.20947332665E+03
 0.20947242848E+03 0.19967405480E+03 0.18351644785E+03 0.16489619314E+03 0.14534567746E+03
 0.12413758161E+03 0.10079192750E+03 0.77027077936E+02 0.56118782501E+02 0.40502331028E+02
 0.30045620072E+02 0.22916707519E+02 0.18242171890E+02 0.15251791416E+02 0.13296811007E+02
 0.11988901694E+02 0.11152382259E+02 0.10735713004E+02 0.10735400011E+02 0.11152026861E+02
 0.11989219918E+02 0.13297337743E+02 0.15251583113E+02 0.18241401847E+02 0.22916508728E+02
 0.30046408327E+02 0.40503545999E+02 0.56120031344E+02 0.77028547149E+02 0.10079383512E+03
 0.12413958802E+03 0.14534739880E+03 0.16489787923E+03 0.18351852016E+03 0.17355162225E+03
 0.18351796921E+03 0.18720972394E+03 0.18351656455E+03 0.17354967626E+03 0.15958005301E+03
 0.14308658615E+03 0.12413813736E+03 0.10270729224E+03 0.80260200503E+02 0.59700531385E+02
 0.43611866551E+02 0.32510745447E+02 0.24886442916E+02 0.19748578385E+02 0.16426760173E+02
 0.14254354939E+02 0.12788600464E+02 0.11806790281E+02 0.11227740032E+02 0.11034817709E+02
 0.11227703515E+02 0.11806826339E+02 0.12788675885E+02 0.14254316119E+02 0.16426604710E+02
 0.19748451523E+02 0.24886402918E+02 0.32510815626E+02 0.43612709887E+02 0.59702632185E+02
 0.80262998508E+02 0.10270964857E+03 0.12413956182E+03 0.14308768165E+03 0.15958161247E+03
 0.14981512680E+03 0.15957949815E+03 0.16489595239E+03 0.16489628815E+03 0.15958017423E+03
 0.14981557948E+03 0.13649866492E+03 0.12001644154E+03 0.10079110231E+03 0.80259048573E+02
 0.60957702229E+02 0.45315084344E+02 0.34160764241E+02 0.26392366400E+02 0.21018430306E+02
 0.17488823861E+02 0.15170311690E+02 0.13597154723E+02 0.12514046222E+02 0.11815689636E+02
 0.11470395533E+02 0.11470614050E+02 0.11815967841E+02 0.12513869280E+02 0.13596754131E+02
 0.15170364165E+02 0.17489306304E+02 0.21018456732E+02 0.26391513847E+02 0.34160047571E+02
 0.45316395668E+02 0.60961213702E+02 0.80262976824E+02 0.10079374010E+03 0.12001752913E+03
 0.13649877385E+03 0.12598702032E+03 0.13649679971E+03 0.14308511200E+03 0.14534563222E+03
 0.14308664809E+03 0.13649871469E+03 0.12598770433E+03 0.11198503415E+03 0.95183915226E+02
 0.77024049665E+02 0.59699530274E+02 0.45315513827E+02 0.34743356435E+02 0.27209513886E+02
 0.21869781127E+02 0.18297828118E+02 0.15932094379E+02 0.14318978127E+02 0.13189408564E+02
 0.12421987023E+02 0.11972914849E+02 0.11825057284E+02 0.11972703877E+02 0.12421831326E+02
 0.13189438676E+02 0.14319091531E+02 0.15932226808E+02 0.18297961003E+02 0.21869697164E+02
 0.27208986031E+02 0.34742801406E+02 0.45316445435E+02 0.59702694117E+02 0.77028501903E+02
 0.95187713535E+02 0.11198667479E+03 0.10048931085E+03 0.11198527243E+03 0.12001539800E+03
 0.12413750219E+03 0.12413810008E+03 0.12001642594E+03 0.11198499998E+03 0.10048645038E+03
 0.86338849827E+02 0.70930303516E+02 0.56117660689E+02 0.43613101855E+02 0.34161317711E+02
 0.27209290745E+02 0.22169793799E+02 0.18736126867E+02 0.16437265637E+02 0.14861797569E+02
 0.13747533703E+02 0.12966294698E+02 0.12466757788E+02 0.12224201536E+02 0.12223877968E+02
 0.12466276932E+02 0.12966316742E+02 0.13747848845E+02 0.14861805304E+02 0.16437079596E+02
 0.18736323225E+02 0.22170198294E+02 0.27208951861E+02 0.34160063167E+02 0.43612815509E+02
 0.56120110760E+02 0.70935152397E+02 0.86343820849E+02 0.75102706329E+02 0.86342746005E+02
 0.95186213816E+02 0.10079194043E+03 0.10270729224E+03 0.10079108486E+03 0.95183853295E+02
 0.86338783337E+02 0.75098309550E+02 0.62730695841E+02 0.50759963717E+02 0.40504095837E+02
 0.32511669024E+02 0.26391737252E+02 0.21869539260E+02 0.18736186432E+02 0.16614250389E+02
 0.15153103011E+02 0.14115212623E+02 0.13375704569E+02 0.12880154824E+02 0.12599218065E+02
 0.12509079857E+02 0.12599099514E+02 0.12880031507E+02 0.13375628379E+02 0.14115127956E+02
 0.15153000544E+02 0.16614238364E+02 0.18736321373E+02 0.21869635233E+02 0.26391431761E+02
 0.32510815626E+02 0.40503623563E+02 0.50761077790E+02 0.62733866062E+02 0.53500164347E+02
 0.62733278071E+02 0.70933960792E+02 0.77027111417E+02 0.80260260190E+02 0.80259110104E+02
 0.77024061429E+02 0.70930257581E+02 0.62730651758E+02 0.53499682025E+02 0.44434148513E+02
 0.36497763286E+02 0.30046382681E+02 0.24885470462E+02 0.21017767261E+02 0.18297946327E+02
 0.16437356541E+02 0.15153176407E+02 0.14243439111E+02 0.13595056939E+02 0.13154202562E+02
 0.12888612817E+02 0.12767421622E+02 0.12767459317E+02 0.12888643940E+02 0.13154131391E+02
 0.13594939082E+02 0.14243343991E+02 0.15153021099E+02 0.16437125531E+02 0.18297972766E+02
 0.21018395202E+02 0.24886319703E+02 0.30046374846E+02 0.36496594872E+02 0.44433011100E+02
 0.38010519884E+02 0.44433120585E+02 0.50760132666E+02 0.56118737256E+02 0.59700527915E+02
 0.60957751996E+02 0.59699595676E+02 0.56117694859E+02 0.50759960247E+02 0.44434136749E+02
 0.38012088675E+02 0.32155316502E+02 0.27088360262E+02 0.22915486134E+02 0.19747551108E+02
 0.17488969795E+02 0.15932281644E+02 0.14861904415E+02 0.14115151095E+02 0.13594953259E+02
 0.13250136144E+02 0.13045977118E+02 0.12946416238E+02 0.12917979395E+02 0.12946440853E+02
 0.13045976838E+02 0.13250103092E+02 0.13594927318E+02 0.14115124485E+02 0.14861839475E+02
 0.15932292209E+02 0.17489356070E+02 0.19748448053E+02 0.22916463483E+02 0.27088570676E+02
 0.32154292692E+02 0.27892660700E+02 0.32154588717E+02 0.36496103327E+02 0.40502281663E+02
 0.43611799220E+02 0.45315038698E+02 0.45315509707E+02 0.43613131905E+02 0.40504132276E+02
 0.36497779170E+02 0.32155312382E+02 0.27892091024E+02 0.24000038971E+02 0.20749116417E+02
 0.18241304979E+02 0.16427080833E+02 0.15170691783E+02 0.14318963760E+02 0.13747586822E+02
 0.13375635611E+02 0.13154369160E+02 0.13046107799E+02 0.13010346879E+02 0.13006083580E+02
 0.13006173322E+02 0.13010442157E+02 0.13045972718E+02 0.13154115507E+02 0.13375600180E+02
 0.13747818794E+02 0.14319087411E+02 0.15170409811E+02 0.16426680281E+02 0.18241451213E+02
 0.20750099240E+02 0.24001316827E+02 0.21109410643E+02 0.24001154221E+02 0.27088482939E+02
 0.30045654479E+02 0.32510745447E+02 0.34160725313E+02 0.34743294504E+02 0.34161272702E+02
 0.32511669024E+02 0.30046405283E+02 0.27088363732E+02 0.24000024013E+02 0.21107972480E+02
 0.18637141654E+02 0.16687915077E+02 0.15252392467E+02 0.14254988756E+02 0.13597060537E+02
 0.13189618616E+02 0.12966599860E+02 0.12880360940E+02 0.12888833236E+02 0.12946438813E+02
 0.13006103218E+02 0.13030765037E+02 0.13006180040E+02 0.12946444324E+02 0.12888644865E+02
 0.12880031507E+02 0.12966293410E+02 0.13189376745E+02 0.13596693526E+02 0.14254316119E+02
 0.15251639196E+02 0.16687712022E+02 0.18637931238E+02 0.16767361184E+02 0.18637617827E+02
 0.20750268502E+02 0.22916744290E+02 0.24886505893E+02 0.26392424641E+02 0.27209522360E+02
 0.27209248100E+02 0.26391696459E+02 0.24885467172E+02 0.22915494608E+02 0.20749103823E+02
 0.18637122342E+02 0.16767885898E+02 0.15246180786E+02 0.14098673671E+02 0.13297444372E+02
 0.12788554950E+02 0.12514177755E+02 0.12422543859E+02 0.12466830203E+02 0.12599193612E+02
 0.12767336286E+02 0.12917937199E+02 0.13006105582E+02 0.13006096174E+02 0.12917987869E+02
 0.12767462607E+02 0.12599123359E+02 0.12466319576E+02 0.12421839800E+02 0.12513811040E+02
 0.12788595960E+02 0.13297300972E+02 0.14097863463E+02 0.15245071374E+02 0.14022259265E+02
 0.15245302198E+02 0.16687946732E+02 0.18242126645E+02 0.19748568104E+02 0.21018480073E+02
 0.21869853339E+02 0.22169827970E+02 0.21869528980E+02 0.21017755497E+02 0.19747557918E+02
 0.18241309099E+02 0.16687904797E+02 0.15246172312E+02 0.14023495025E+02 0.13072187641E+02
 0.12400292116E+02 0.11988883978E+02 0.11806627628E+02 0.11816050095E+02 0.11972812639E+02
 0.12223798094E+02 0.12508897168E+02 0.12767327812E+02 0.12946428533E+02 0.13010350999E+02
 0.12946423048E+02 0.12767409858E+02 0.12509069576E+02 0.12223912138E+02 0.11972776089E+02
 0.11816017608E+02 0.11806816059E+02 0.11989174672E+02 0.12400196418E+02 0.13071366736E+02
 0.12242534028E+02 0.13071985872E+02 0.14098043383E+02 0.15251751151E+02 0.16426683741E+02
 0.17488769114E+02 0.18297833099E+02 0.18736166018E+02 0.18736213771E+02 0.18297953111E+02
 0.17488974775E+02 0.16427089933E+02 0.15252398324E+02 0.14098677164E+02 0.13072192621E+02
 0.12242188307E+02 0.11642927064E+02 0.11282641839E+02 0.11152109902E+02 0.11227755655E+02
 0.11470313167E+02 0.11824514313E+02 0.12223803074E+02 0.12599190118E+02 0.12888817417E+02
 0.13046098698E+02 0.13045982098E+02 0.12888606034E+02 0.12599180765E+02 0.12224162385E+02
 0.11825062265E+02 0.11470668797E+02 0.11227769986E+02 0.11152067125E+02 0.11282912763E+02
 0.11643466610E+02 0.11079371709E+02 0.11643563497E+02 0.12400215003E+02 0.13296859851E+02
 0.14254354939E+02 0.15170258325E+02 0.15932032448E+02 0.16437235065E+02 0.16614250389E+02
 0.16437364706E+02 0.15932285115E+02 0.15170691261E+02 0.14254988756E+02 0.13297449247E+02
 0.12400302397E+02 0.11642935643E+02 0.11078397330E+02 0.10736152010E+02 0.10625447519E+02
 0.10735708647E+02 0.11034981998E+02 0.11470314549E+02 0.11972822919E+02 0.12466842276E+02
 0.12880360940E+02 0.13154361442E+02 0.13250139614E+02 0.13154217924E+02 0.12880154824E+02
 0.12466720019E+02 0.11972852917E+02 0.11470349365E+02 0.11034817709E+02 0.10735441658E+02
 0.10625506283E+02 0.10736817326E+02 0.10395122396E+02 0.10736184620E+02 0.11282723039E+02
 0.11988947681E+02 0.12788672657E+02 0.13597203747E+02 0.14318977385E+02 0.14861764140E+02
 0.15153071433E+02 0.15153163901E+02 0.14861903673E+02 0.14318960382E+02 0.13597050441E+02
 0.12788545734E+02 0.11988883236E+02 0.11282647562E+02 0.10736156350E+02 0.10395308397E+02
 0.10284693031E+02 0.10405828906E+02 0.10735705790E+02 0.11227749932E+02 0.11816049353E+02
 0.12422553075E+02 0.12966611441E+02 0.13375638989E+02 0.13594952517E+02 0.13595069444E+02
 0.13375737630E+02 0.12966328126E+02 0.12421986281E+02 0.11815640612E+02 0.11227669323E+02
 0.10735667017E+02 0.10405563798E+02 0.10284327503E+02 0.10165746872E+02 0.10283898339E+02
 0.10625282195E+02 0.11152337013E+02 0.11806790397E+02 0.12514095989E+02 0.13189470379E+02
 0.13747567874E+02 0.14115212739E+02 0.14243427348E+02 0.14115147508E+02 0.13747590942E+02
 0.13189618732E+02 0.12514169281E+02 0.11806617231E+02 0.11152104921E+02 0.10625447636E+02
 0.10284693773E+02 0.10166850449E+02 0.10284693773E+02 0.10625447636E+02 0.11152104921E+02
 0.11806617231E+02 0.12514169281E+02 0.13189618732E+02 0.13747590942E+02 0.14115147508E+02
 0.14243427348E+02 0.14115212739E+02 0.13747567874E+02 0.13189470379E+02 0.12514095989E+02
 0.11806790397E+02 0.11152337013E+02 0.10625282195E+02 0.10283898339E+02 0.10395122396E+02
 0.10284327503E+02 0.10405563798E+02 0.10735667017E+02 0.11227669323E+02 0.11815640612E+02
 0.12421986281E+02 0.12966328126E+02 0.13375737630E+02 0.13595069444E+02 0.13594952517E+02
 0.13375638989E+02 0.12966611441E+02 0.12422553075E+02 0.11816049353E+02 0.11227749932E+02
 0.10735705790E+02 0.10405828906E+02 0.10284693031E+02 0.10395308397E+02 0.10736156350E+02
 0.11282647562E+02 0.11988883236E+02 0.12788545734E+02 0.13597050441E+02 0.14318960382E+02
 0.14861903673E+02 0.15153163901E+02 0.15153071433E+02 0.14861764140E+02 0.14318977385E+02
 0.13597203747E+02 0.12788672657E+02 0.11988947681E+02 0.11282723039E+02 0.10736184620E+02
 0.11079371709E+02 0.10736817326E+02 0.10625506283E+02 0.10735441658E+02 0.11034817709E+02
 0.11470349365E+02 0.11972852917E+02 0.12466720019E+02 0.12880154824E+02 0.13154217924E+02
 0.13250139614E+02 0.13154361442E+02 0.12880360940E+02 0.12466842276E+02 0.11972822919E+02
 0.11470314549E+02 0.11034981998E+02 0.10735708647E+02 0.10625447519E+02 0.10736152010E+02
 0.11078397330E+02 0.11642935643E+02 0.12400302397E+02 0.13297449247E+02 0.14254988756E+02
 0.15170691261E+02 0.15932285115E+02 0.16437364706E+02 0.16614250389E+02 0.16437235065E+02
 0.15932032448E+02 0.15170258325E+02 0.14254354939E+02 0.13296859851E+02 0.12400215003E+02
 0.11643563497E+02 0.12242534028E+02 0.11643466610E+02 0.11282912763E+02 0.11152067125E+02
 0.11227769986E+02 0.11470668797E+02 0.11825062265E+02 0.12224162385E+02 0.12599180765E+02
 0.12888606034E+02 0.13045982098E+02 0.13046098698E+02 0.12888817417E+02 0.12599190118E+02
 0.12223803074E+02 0.11824514313E+02 0.11470313167E+02 0.11227755655E+02 0.11152109902E+02
 0.11282641839E+02 0.11642927064E+02 0.12242188307E+02 0.13072192621E+02 0.14098677164E+02
 0.15252398324E+02 0.16427089933E+02 0.17488974775E+02 0.18297953111E+02 0.18736213771E+02
 0.18736166018E+02 0.18297833099E+02 0.17488769114E+02 0.16426683741E+02 0.15251751151E+02
 0.14098043383E+02 0.13071985872E+02 0.14022259265E+02 0.13071366736E+02 0.12400196418E+02
 0.11989174672E+02 0.11806816059E+02 0.11816017608E+02 0.11972776089E+02 0.12223912138E+02
 0.12509069576E+02 0.12767409858E+02 0.12946423048E+02 0.13010350999E+02 0.12946428533E+02
 0.12767327812E+02 0.12508897168E+02 0.12223798094E+02 0.11972812639E+02 0.11816050095E+02
 0.11806627628E+02 0.11988883978E+02 0.12400292116E+02 0.13072187641E+02 0.14023495025E+02
 0.15246172312E+02 0.16687904797E+02 0.18241309099E+02 0.19747557918E+02 0.21017755497E+02
 0.21869528980E+02 0.22169827970E+02 0.21869853339E+02 0.21018480073E+02 0.19748568104E+02
 0.18242126645E+02 0.16687946732E+02 0.15245302198E+02 0.16767361184E+02 0.15245071374E+02
 0.14097863463E+02 0.13297300972E+02 0.12788595960E+02 0.12513811040E+02 0.12421839800E+02
 0.12466319576E+02 0.12599123359E+02 0.12767462607E+02 0.12917987869E+02 0.13006096174E+02
 0.13006105582E+02 0.12917937199E+02 0.12767336286E+02 0.12599193612E+02 0.12466830203E+02
 0.12422543859E+02 0.12514177755E+02 0.12788554950E+02 0.13297444372E+02 0.14098673671E+02
 0.15246180786E+02 0.16767885898E+02 0.18637122342E+02 0.20749103823E+02 0.22915494608E+02
 0.24885467172E+02 0.26391696459E+02 0.27209248100E+02 0.27209522360E+02 0.26392424641E+02
 0.24886505893E+02 0.22916744290E+02 0.20750268502E+02 0.18637617827E+02 0.21109410643E+02
 0.18637931238E+02 0.16687712022E+02 0.15251639196E+02 0.14254316119E+02 0.13596693526E+02
 0.13189376745E+02 0.12966293410E+02 0.12880031507E+02 0.12888644865E+02 0.12946444324E+02
 0.13006180040E+02 0.13030765037E+02 0.13006103218E+02 0.12946438813E+02 0.12888833236E+02
 0.12880360940E+02 0.12966599860E+02 0.13189618616E+02 0.13597060537E+02 0.14254988756E+02
 0.15252392467E+02 0.16687915077E+02 0.18637141654E+02 0.21107972480E+02 0.24000024013E+02
 0.27088363732E+02 0.30046405283E+02 0.32511669024E+02 0.34161272702E+02 0.34743294504E+02
 0.34160725313E+02 0.32510745447E+02 0.30045654479E+02 0.27088482939E+02 0.24001154221E+02
 0.27892660700E+02 0.24001316827E+02 0.20750099240E+02 0.18241451213E+02 0.16426680281E+02
 0.15170409811E+02 0.14319087411E+02 0.13747818794E+02 0.13375600180E+02 0.13154115507E+02
 0.13045972718E+02 0.13010442157E+02 0.13006173322E+02 0.13006083580E+02 0.13010346879E+02
 0.13046107799E+02 0.13154369160E+02 0.13375635611E+02 0.13747586822E+02 0.14318963760E+02
 0.15170691783E+02 0.16427080833E+02 0.18241304979E+02 0.20749116417E+02 0.24000038971E+02
 0.27892091024E+02 0.32155312382E+02 0.36497779170E+02 0.40504132276E+02 0.43613131905E+02
 0.45315509707E+02 0.45315038698E+02 0.43611799220E+02 0.40502281663E+02 0.36496103327E+02
 0.32154588717E+02 0.38010519884E+02 0.32154292692E+02 0.27088570676E+02 0.22916463483E+02
 0.19748448053E+02 0.17489356070E+02 0.15932292209E+02 0.14861839475E+02 0.14115124485E+02
 0.13594927318E+02 0.13250103092E+02 0.13045976838E+02 0.12946440853E+02 0.12917979395E+02
 0.12946416238E+02 0.13045977118E+02 0.13250136144E+02 0.13594953259E+02 0.14115151095E+02
 0.14861904415E+02 0.15932281644E+02 0.17488969795E+02 0.19747551108E+02 0.22915486134E+02
 0.27088360262E+02 0.32155316502E+02 0.38012088675E+02 0.44434136749E+02 0.50759960247E+02
 0.56117694859E+02 0.59699595676E+02 0.60957751996E+02 0.59700527915E+02 0.56118737256E+02
 0.50760132666E+02 0.44433120585E+02 0.53500164347E+02 0.44433011100E+02 0.36496594872E+02
 0.30046374846E+02 0.24886319703E+02 0.21018395202E+02 0.18297972766E+02 0.16437125531E+02
 0.15153021099E+02 0.14243343991E+02 0.13594939082E+02 0.13154131391E+02 0.12888643940E+02
 0.12767459317E+02 0.12767421622E+02 0.12888612817E+02 0.13154202562E+02 0.13595056939E+02
 0.14243439111E+02 0.15153176407E+02 0.16437356541E+02 0.18297946327E+02 0.21017767261E+02
 0.24885470462E+02 0.30046382681E+02 0.36497763286E+02 0.44434148513E+02 0.53499682025E+02
 0.62730651758E+02 0.70930257581E+02 0.77024061429E+02 0.80259110104E+02 0.80260260190E+02
 0.77027111417E+02 0.70933960792E+02 0.62733278071E+02 0.75102706329E+02 0.62733866062E+02
 0.50761077790E+02 0.40503623563E+02 0.32510815626E+02 0.26391431761E+02 0.21869635233E+02
 0.18736321373E+02 0.16614238364E+02 0.15153000544E+02 0.14115127956E+02 0.13375628379E+02
 0.12880031507E+02 0.12599099514E+02 0.12509079857E+02 0.12599218065E+02 0.12880154824E+02
 0.13375704569E+02 0.14115212623E+02 0.15153103011E+02 0.16614250389E+02 0.18736186432E+02
 0.21869539260E+02 0.26391737252E+02 0.32511669024E+02 0.40504095837E+02 0.50759963717E+02
 0.62730695841E+02 0.75098309550E+02 0.86338783337E+02 0.95183853295E+02 0.10079108486E+03
 0.10270729224E+03 0.10079194043E+03 0.95186213816E+02 0.86342746005E+02 0.10048931085E+03
 0.86343820849E+02 0.70935152397E+02 0.56120110760E+02 0.43612815509E+02 0.34160063167E+02
 0.27208951861E+02 0.22170198294E+02 0.18736323225E+02 0.16437079596E+02 0.14861805304E+02
 0.13747848845E+02 0.12966316742E+02 0.12466276932E+02 0.12223877968E+02 0.12224201536E+02
 0.12466757788E+02 0.12966294698E+02 0.13747533703E+02 0.14861797569E+02 0.16437265637E+02
 0.18736126867E+02 0.22169793799E+02 0.27209290745E+02 0.34161317711E+02 0.43613101855E+02
 0.56117660689E+02 0.70930303516E+02 0.86338849827E+02 0.10048645038E+03 0.11198499998E+03
 0.12001642594E+03 0.12413810008E+03 0.12413750219E+03 0.12001539800E+03 0.11198527243E+03
 0.12598702032E+03 0.11198667479E+03 0.95187713535E+02 0.77028501903E+02 0.59702694117E+02
 0.45316445435E+02 0.34742801406E+02 0.27208986031E+02 0.21869697164E+02 0.18297961003E+02
 0.15932226808E+02 0.14319091531E+02 0.13189438676E+02 0.12421831326E+02 0.11972703877E+02
 0.11825057284E+02 0.11972914849E+02 0.12421987023E+02 0.13189408564E+02 0.14318978127E+02
 0.15932094379E+02 0.18297828118E+02 0.21869781127E+02 0.27209513886E+02 0.34743356435E+02
 0.45315513827E+02 0.59699530274E+02 0.77024049665E+02 0.95183915226E+02 0.11198503415E+03
 0.12598770433E+03 0.13649871469E+03 0.14308664809E+03 0.14534563222E+03 0.14308511200E+03
 0.13649679971E+03 0.14981512680E+03 0.13649877385E+03 0.12001752913E+03 0.10079374010E+03
 0.80262976824E+02 0.60961213702E+02 0.45316395668E+02 0.34160047571E+02 0.26391513847E+02
 0.21018456732E+02 0.17489306304E+02 0.15170364165E+02 0.13596754131E+02 0.12513869280E+02
 0.11815967841E+02 0.11470614050E+02 0.11470395533E+02 0.11815689636E+02 0.12514046222E+02
 0.13597154723E+02 0.15170311690E+02 0.17488823861E+02 0.21018430306E+02 0.26392366400E+02
 0.34160764241E+02 0.45315084344E+02 0.60957702229E+02 0.80259048573E+02 0.10079110231E+03
 0.12001644154E+03 0.13649866492E+03 0.14981557948E+03 0.15958017423E+03 0.16489628815E+03
 0.16489595239E+03 0.15957949815E+03 0.17355162225E+03 0.15958161247E+03 0.14308768165E+03
 0.12413956182E+03 0.10270964857E+03 0.80262998508E+02 0.59702632185E+02 0.43612709887E+02
 0.32510815626E+02 0.24886402918E+02 0.19748451523E+02 0.16426604710E+02 0.14254316119E+02
 0.12788675885E+02 0.11806826339E+02 0.11227703515E+02 0.11034817709E+02 0.11227740032E+02
 0.11806790281E+02 0.12788600464E+02 0.14254354939E+02 0.16426760173E+02 0.19748578385E+02
 0.24886442916E+02 0.32510745447E+02 0.43611866551E+02 0.59700531385E+02 0.80260200503E+02
 0.10270729223E+03 0.12413813736E+03 0.14308658615E+03 0.15958005301E+03 0.17354967626E+03
 0.18351656455E+03 0.18720972394E+03 0.18351796921E+03 0.19967611232E+03 0.18351852016E+03
 0.16489787923E+03 0.14534739880E+03 0.12413958802E+03 0.10079383512E+03 0.77028547149E+02
 0.56120031344E+02 0.40503545999E+02 0.30046408327E+02 0.22916508728E+02 0.18241401847E+02
 0.15251583113E+02 0.13297337743E+02 0.11989219918E+02 0.11152026861E+02 0.10735400011E+02
 0.10735713004E+02 0.11152382259E+02 0.11988901694E+02 0.13296811007E+02 0.15251791416E+02
 0.18242171890E+02 0.22916707519E+02 0.30045620072E+02 0.40502331028E+02 0.56118782501E+02
 0.77027077936E+02 0.10079192750E+03 0.12413758161E+03 0.14534567746E+03 0.16489619314E+03
 0.18351644785E+03 0.19967405480E+03 0.20947242848E+03 0.20947332665E+03 0.22707582980E+03
 0.20947105747E+03 0.18720992385E+03 0.16489783398E+03 0.14308763341E+03 0.12001757889E+03
 0.95187823705E+02 0.70935186568E+02 0.50761029552E+02 0.36496583108E+02 0.27088615444E+02
 0.20750103360E+02 0.16687663783E+02 0.14097854989E+02 0.12400234376E+02 0.11282907783E+02
 0.10625458044E+02 0.10405564540E+02 0.10625330550E+02 0.11282723781E+02 0.12400166764E+02
 0.14098038403E+02 0.16687984690E+02 0.20750260028E+02 0.27088434700E+02 0.36496107447E+02
 0.50760177435E+02 0.70933949028E+02 0.95186165577E+02 0.12001543217E+03 0.14308522217E+03
 0.16489600215E+03 0.18720967570E+03 0.20947238323E+03 0.22707728308E+03 0.23389420493E+03
 0.24924785447E+03 0.23389050387E+03 0.20947107580E+03 0.18351849325E+03 0.15958152268E+03
 0.13649870575E+03 0.11198669313E+03 0.86343873356E+02 0.62733880045E+02 0.44433004528E+02
 0.32154311028E+02 0.24001339283E+02 0.18637923741E+02 0.15245061512E+02 0.13071385072E+02
 0.11643479966E+02 0.10736795392E+02 0.10284308425E+02 0.10283916675E+02 0.10736203698E+02
 0.11643548760E+02 0.13071972516E+02 0.15245320534E+02 0.18637627689E+02 0.24001125046E+02
 0.32154566261E+02 0.44433138921E+02 0.62733284644E+02 0.86342695350E+02 0.11198521993E+03
 0.13649681805E+03 0.15957956626E+03 0.18351802233E+03 0.20947335356E+03 0.23389422326E+03
 0.24924969772E+03 0.24887245765E+03 0.24066339302E+03 0.21960384732E+03 0.19348291426E+03
 0.16840352330E+03 0.14541651816E+03 0.12224731640E+03 0.97523516563E+02 0.73032911901E+02
 0.52277693489E+02 0.37406252604E+02 0.27626171189E+02 0.21044382153E+02 0.16825334082E+02
 0.14147252279E+02 0.12402765281E+02 0.11259527550E+02 0.10586498995E+02 0.10360354725E+02
 0.10585616396E+02 0.11259511110E+02 0.12403632476E+02 0.14147273688E+02 0.16824491856E+02
 0.21044376021E+02 0.27626979677E+02 0.37406118156E+02 0.52276470979E+02 0.73032167431E+02
 0.97523134696E+02 0.12224563101E+03 0.14541389344E+03 0.16840226204E+03 0.19348341906E+03
 0.21960423956E+03 0.24066302438E+03 0.24066328420E+03 0.24066558343E+03 0.22736628763E+03
 0.20600557206E+03 0.18270793455E+03 0.16011605431E+03 0.13705941808E+03 0.11189983234E+03
 0.85654814579E+02 0.61838526628E+02 0.43655702098E+02 0.31562212702E+02 0.23523391278E+02
 0.18250039827E+02 0.14913576044E+02 0.12770931172E+02 0.11360660879E+02 0.10465676853E+02
 0.10019955298E+02 0.10019746812E+02 0.10465652209E+02 0.11361160461E+02 0.12770949111E+02
 0.14912783098E+02 0.18249791803E+02 0.23524169500E+02 0.31562447309E+02 0.43654736865E+02
 0.61838003973E+02 0.85655608594E+02 0.11190042308E+03 0.13705893119E+03 0.16011575698E+03
 0.18270791998E+03 0.20600356684E+03 0.22736213519E+03 0.21960345829E+03 0.22480587253E+03
 0.21960610982E+03 0.20600516945E+03 0.18814443152E+03 0.16872939239E+03 0.14752693654E+03
 0.12328108353E+03 0.96663882590E+02 0.71005988583E+02 0.50155510072E+02 0.35727798023E+02
 0.26295693369E+02 0.19973806113E+02 0.15935700288E+02 0.13361817804E+02 0.11674476304E+02
 0.10566475044E+02 0.99168898096E+01 0.96997957701E+01 0.99162540608E+01 0.10566630617E+02
 0.11675286100E+02 0.13361688082E+02 0.15934712911E+02 0.19973680240E+02 0.26296574370E+02
 0.35728150611E+02 0.50155292584E+02 0.71006564789E+02 0.96665249672E+02 0.12328191242E+03
 0.14752715735E+03 0.16872980938E+03 0.18814420195E+03 0.20600296156E+03 0.19348209060E+03
 0.19967231390E+03 0.19967222509E+03 0.19348142286E+03 0.18270642422E+03 0.16872919551E+03
 0.15134438811E+03 0.12964825373E+03 0.10425983652E+03 0.78315550124E+02 0.55966173502E+02
 0.39723362544E+02 0.29050679645E+02 0.21827063584E+02 0.17121154390E+02 0.14118121007E+02
 0.12157344609E+02 0.10849655953E+02 0.10017715343E+02 0.96050556027E+01 0.96043114850E+01
 0.10016916932E+02 0.10850385571E+02 0.12158319158E+02 0.14117548915E+02 0.17120014497E+02
 0.21827302134E+02 0.29051867934E+02 0.39724006713E+02 0.55966589894E+02 0.78316733628E+02
 0.10426128245E+03 0.12964893322E+03 0.15134477340E+03 0.16873027274E+03 0.18270777807E+03
 0.16840226204E+03 0.17328550779E+03 0.17493957155E+03 0.17328484413E+03 0.16840073593E+03
 0.16011524170E+03 0.14752721403E+03 0.12964842907E+03 0.10698152812E+03 0.82391857880E+02
 0.60023817199E+02 0.42933518919E+02 0.31411446104E+02 0.23569467136E+02 0.18325995376E+02
 0.14947774123E+02 0.12742230475E+02 0.11258993077E+02 0.10271646240E+02 0.96932803415E+01
 0.95011485068E+01 0.96928134316E+01 0.10271680264E+02 0.11259500631E+02 0.12742206965E+02
 0.14947218852E+02 0.18325912342E+02 0.23569912906E+02 0.31411545536E+02 0.42933776676E+02
 0.60025471445E+02 0.82394406047E+02 0.10698318673E+03 0.12964889618E+03 0.14752793861E+03
 0.16011686267E+03 0.14541499997E+03 0.14966988037E+03 0.15135407472E+03 0.15135447119E+03
 0.14967045361E+03 0.14541503514E+03 0.13705953675E+03 0.12328118301E+03 0.10425875970E+03
 0.82390638666E+02 0.61483334234E+02 0.44734381139E+02 0.33020965600E+02 0.24932514499E+02
 0.19373612433E+02 0.15732436414E+02 0.13341950841E+02 0.11723489875E+02 0.10615800968E+02
 0.99073544037E+01 0.95592891164E+01 0.95593251209E+01 0.99074613591E+01 0.10615830727E+02
 0.11723277829E+02 0.13341799799E+02 0.15732743784E+02 0.19373916045E+02 0.24932004031E+02
 0.33020171174E+02 0.44735400696E+02 0.61486647023E+02 0.82394147063E+02 0.10426057766E+03
 0.12328167100E+03 0.13705977789E+03 0.12224583111E+03 0.12787286156E+03 0.13022302880E+03
 0.13080213278E+03 0.13022447544E+03 0.12787462402E+03 0.12224659767E+03 0.11189877814E+03
 0.96661316998E+02 0.78312332643E+02 0.60022566409E+02 0.44734646764E+02 0.33595047436E+02
 0.25682242249E+02 0.20089514760E+02 0.16346821369E+02 0.13860987124E+02 0.12164339401E+02
 0.10980933798E+02 0.10183065918E+02 0.97197393790E+01 0.95678219423E+01 0.97194316480E+01
 0.10182954466E+02 0.10981109048E+02 0.12164420125E+02 0.13860950041E+02 0.16346979424E+02
 0.20089684421E+02 0.25681914664E+02 0.33594556777E+02 0.44735642120E+02 0.60025671549E+02
 0.78316270263E+02 0.96664268302E+02 0.11189981780E+03 0.97522333881E+02 0.10541328308E+03
 0.10961965090E+03 0.11126334459E+03 0.11126411958E+03 0.10962118169E+03 0.10541377795E+03
 0.97520386492E+02 0.85650766693E+02 0.71002038237E+02 0.55964596539E+02 0.42934362260E+02
 0.33021391810E+02 0.25682074974E+02 0.20344184694E+02 0.16684763010E+02 0.14212863800E+02
 0.12506939669E+02 0.11299430960E+02 0.10456817389E+02 0.99213972245E+01 0.96625956210E+01
 0.96622765700E+01 0.99209550288E+01 0.10456905044E+02 0.11299747700E+02 0.12506853000E+02
 0.14212594575E+02 0.16684975565E+02 0.20344664918E+02 0.25681850378E+02 0.33020348313E+02
 0.42934341369E+02 0.55967117544E+02 0.71006500504E+02 0.85654939030E+02 0.73032167431E+02
 0.82071715842E+02 0.88146068200E+02 0.91397963394E+02 0.92386242110E+02 0.91397852613E+02
 0.88144904318E+02 0.82068909860E+02 0.73028452878E+02 0.61835529237E+02 0.50154743978E+02
 0.39724735913E+02 0.31412295483E+02 0.24932073963E+02 0.20089481856E+02 0.16684901779E+02
 0.14337395577E+02 0.12693787877E+02 0.11515000162E+02 0.10673197406E+02 0.10109301873E+02
 0.97893574267E+01 0.96865660083E+01 0.97892966033E+01 0.10109233954E+02 0.10673128426E+02
 0.11514878230E+02 0.12693620905E+02 0.14337294302E+02 0.16684930466E+02 0.20089484317E+02
 0.24931743420E+02 0.31411545536E+02 0.39724489264E+02 0.50156073849E+02 0.61838590065E+02
 0.52277348901E+02 0.60451355837E+02 0.67063661533E+02 0.71497335729E+02 0.73659077555E+02
 0.73658306091E+02 0.71495210577E+02 0.67060906359E+02 0.60449208819E+02 0.52276808764E+02