   3   3   1   0
  0.2160751E+02  0.3771498E-09  0.3771498E-09  0.5262074E-09  0.5000000E-15
  1.000000000000000E-004
  CAR 
 unknown system                          
     15.65032045    -10.73756517  301      5.75700829      1.00000000
    -10.738  0.0000E+00  0.0000E+00
    -10.650  0.0000E+00  0.0000E+00
    -10.562  0.0000E+00  0.0000E+00
    -10.474  0.0000E+00  0.0000E+00
    -10.386  0.0000E+00  0.0000E+00
    -10.298  0.0000E+00  0.0000E+00
    -10.210  0.0000E+00  0.0000E+00
    -10.122  0.3506E-16  0.3084E-17
    -10.034  0.7888E-12  0.6938E-13
     -9.946  0.2872E-08  0.2527E-09
     -9.858  0.2351E-05  0.2071E-06
     -9.770  0.4439E-03  0.3925E-04
     -9.682  0.2013E-01  0.1810E-02
     -9.594  0.2346E+00  0.2244E-01
     -9.506  0.7863E+00  0.9160E-01
     -9.418  0.9579E+00  0.1759E+00
     -9.330  0.7125E+00  0.2385E+00
     -9.242  0.5780E+00  0.2894E+00
     -9.154  0.6290E+00  0.3447E+00
     -9.066  0.8810E+00  0.4222E+00
     -8.978  0.8910E+00  0.5006E+00
     -8.890  0.6184E+00  0.5550E+00
     -8.802  0.4735E+00  0.5966E+00
     -8.714  0.4209E+00  0.6336E+00
     -8.627  0.3955E+00  0.6684E+00
     -8.539  0.3807E+00  0.7019E+00
     -8.451  0.3739E+00  0.7348E+00
     -8.363  0.3761E+00  0.7679E+00
     -8.275  0.3848E+00  0.8017E+00
     -8.187  0.4170E+00  0.8384E+00
     -8.099  0.6545E+00  0.8960E+00
     -8.011  0.1991E+01  0.1071E+01
     -7.923  0.4247E+01  0.1445E+01
     -7.835  0.5547E+01  0.1933E+01
     -7.747  0.7270E+01  0.2572E+01
     -7.659  0.7096E+01  0.3196E+01
     -7.571  0.3478E+01  0.3502E+01
     -7.483  0.1153E+01  0.3604E+01
     -7.395  0.7296E+00  0.3668E+01
     -7.307  0.7951E+00  0.3738E+01
     -7.219  0.1027E+01  0.3828E+01
     -7.131  0.1180E+01  0.3932E+01
     -7.043  0.6531E+00  0.3989E+01
     -6.955  0.1176E+00  0.3999E+01
     -6.867  0.5793E-02  0.4000E+01
     -6.779  0.7119E-04  0.4000E+01
     -6.691  0.2064E-06  0.4000E+01
     -6.603  0.1365E-09  0.4000E+01
     -6.516  0.2020E-13  0.4000E+01
     -6.428  0.0000E+00  0.4000E+01
     -6.340  0.0000E+00  0.4000E+01
     -6.252  0.0000E+00  0.4000E+01
     -6.164  0.0000E+00  0.4000E+01
     -6.076  0.0000E+00  0.4000E+01
     -5.988  0.0000E+00  0.4000E+01
     -5.900  0.0000E+00  0.4000E+01
     -5.812  0.0000E+00  0.4000E+01
     -5.724  0.0000E+00  0.4000E+01
     -5.636  0.0000E+00  0.4000E+01
     -5.548  0.0000E+00  0.4000E+01
     -5.460  0.0000E+00  0.4000E+01
     -5.372  0.0000E+00  0.4000E+01
     -5.284  0.0000E+00  0.4000E+01
     -5.196  0.0000E+00  0.4000E+01
     -5.108  0.0000E+00  0.4000E+01
     -5.020  0.0000E+00  0.4000E+01
     -4.932  0.0000E+00  0.4000E+01
     -4.844  0.0000E+00  0.4000E+01
     -4.756  0.0000E+00  0.4000E+01
     -4.668  0.0000E+00  0.4000E+01
     -4.580  0.0000E+00  0.4000E+01
     -4.492  0.0000E+00  0.4000E+01
     -4.404  0.0000E+00  0.4000E+01
     -4.317  0.0000E+00  0.4000E+01
     -4.229  0.0000E+00  0.4000E+01
     -4.141  0.0000E+00  0.4000E+01
     -4.053  0.0000E+00  0.4000E+01
     -3.965  0.0000E+00  0.4000E+01
     -3.877  0.0000E+00  0.4000E+01
     -3.789  0.0000E+00  0.4000E+01
     -3.701  0.0000E+00  0.4000E+01
     -3.613  0.0000E+00  0.4000E+01
     -3.525  0.0000E+00  0.4000E+01
     -3.437  0.0000E+00  0.4000E+01
     -3.349  0.0000E+00  0.4000E+01
     -3.261  0.0000E+00  0.4000E+01
     -3.173  0.0000E+00  0.4000E+01
     -3.085  0.0000E+00  0.4000E+01
     -2.997  0.0000E+00  0.4000E+01
     -2.909  0.0000E+00  0.4000E+01
     -2.821  0.0000E+00  0.4000E+01
     -2.733  0.0000E+00  0.4000E+01
     -2.645  0.0000E+00  0.4000E+01
     -2.557  0.0000E+00  0.4000E+01
     -2.469  0.0000E+00  0.4000E+01
     -2.381  0.0000E+00  0.4000E+01
     -2.293  0.0000E+00  0.4000E+01
     -2.205  0.0000E+00  0.4000E+01
     -2.118  0.0000E+00  0.4000E+01
     -2.030  0.1624E-12  0.4000E+01
     -1.942  0.7753E-09  0.4000E+01
     -1.854  0.8303E-06  0.4000E+01
     -1.766  0.2042E-03  0.4000E+01
     -1.678  0.1197E-01  0.4001E+01
     -1.590  0.1783E+00  0.4017E+01
     -1.502  0.7505E+00  0.4083E+01
     -1.414  0.1125E+01  0.4182E+01
     -1.326  0.1105E+01  0.4279E+01
     -1.238  0.1299E+01  0.4393E+01
     -1.150  0.1243E+01  0.4503E+01
     -1.062  0.1208E+01  0.4609E+01
     -0.974  0.1345E+01  0.4727E+01
     -0.886  0.1340E+01  0.4845E+01
     -0.798  0.1681E+01  0.4993E+01
     -0.710  0.1880E+01  0.5158E+01
     -0.622  0.1807E+01  0.5317E+01
     -0.534  0.1858E+01  0.5480E+01
     -0.446  0.2315E+01  0.5684E+01
     -0.358  0.5022E+01  0.6126E+01
     -0.270  0.7410E+01  0.6778E+01
     -0.182  0.5501E+01  0.7261E+01
     -0.094  0.4280E+01  0.7638E+01
     -0.006  0.4390E+01  0.8024E+01
      0.081  0.4229E+01  0.8396E+01
      0.169  0.3791E+01  0.8730E+01
      0.257  0.3110E+01  0.9003E+01
      0.345  0.2443E+01  0.9218E+01
      0.433  0.2418E+01  0.9431E+01
      0.521  0.2376E+01  0.9640E+01
      0.609  0.1771E+01  0.9795E+01
      0.697  0.1733E+01  0.9948E+01
      0.785  0.1413E+01  0.1007E+02
      0.873  0.9658E+00  0.1016E+02
      0.961  0.1350E+01  0.1028E+02
      1.049  0.2106E+01  0.1046E+02
      1.137  0.2655E+01  0.1069E+02
      1.225  0.3524E+01  0.1100E+02
      1.313  0.4114E+01  0.1137E+02
      1.401  0.4363E+01  0.1175E+02
      1.489  0.3424E+01  0.1205E+02
      1.577  0.2320E+01  0.1226E+02
      1.665  0.2164E+01  0.1245E+02
      1.753  0.2292E+01  0.1265E+02
      1.841  0.3617E+01  0.1297E+02
      1.929  0.5105E+01  0.1341E+02
      2.017  0.3124E+01  0.1369E+02
      2.105  0.1811E+01  0.1385E+02
      2.192  0.3016E+01  0.1411E+02
      2.280  0.5025E+01  0.1456E+02
      2.368  0.6620E+01  0.1514E+02
      2.456  0.6188E+01  0.1568E+02
      2.544  0.4454E+01  0.1607E+02
      2.632  0.3249E+01  0.1636E+02
      2.720  0.2273E+01  0.1656E+02
      2.808  0.1888E+01  0.1673E+02
      2.896  0.2400E+01  0.1694E+02
      2.984  0.2925E+01  0.1719E+02
      3.072  0.3175E+01  0.1747E+02
      3.160  0.3190E+01  0.1775E+02
      3.248  0.2992E+01  0.1802E+02
      3.336  0.3160E+01  0.1830E+02
      3.424  0.3267E+01  0.1858E+02
      3.512  0.2486E+01  0.1880E+02
      3.600  0.1896E+01  0.1897E+02
      3.688  0.1756E+01  0.1912E+02
      3.776  0.1934E+01  0.1929E+02
      3.864  0.2203E+01  0.1949E+02
      3.952  0.2479E+01  0.1970E+02
      4.040  0.2067E+01  0.1989E+02
      4.128  0.1728E+01  0.2004E+02
      4.216  0.1688E+01  0.2019E+02
      4.304  0.2075E+01  0.2037E+02
      4.391  0.2977E+01  0.2063E+02
      4.479  0.3029E+01  0.2090E+02
      4.567  0.2415E+01  0.2111E+02
      4.655  0.2189E+01  0.2130E+02
      4.743  0.1757E+01  0.2146E+02
      4.831  0.8328E+00  0.2153E+02
      4.919  0.4558E+00  0.2157E+02
      5.007  0.4710E+00  0.2161E+02
      5.095  0.6047E+00  0.2167E+02
      5.183  0.5594E+00  0.2171E+02
      5.271  0.3897E+00  0.2175E+02
      5.359  0.3031E+00  0.2178E+02
      5.447  0.2612E+00  0.2180E+02
      5.535  0.2563E+00  0.2182E+02
      5.623  0.3254E+00  0.2185E+02
      5.711  0.8781E+00  0.2193E+02
      5.799  0.1721E+01  0.2208E+02
      5.887  0.1841E+01  0.2224E+02
      5.975  0.1480E+01  0.2237E+02
      6.063  0.1013E+01  0.2246E+02
      6.151  0.9241E+00  0.2254E+02
      6.239  0.1022E+01  0.2263E+02
      6.327  0.1174E+01  0.2273E+02
      6.415  0.1384E+01  0.2286E+02
      6.503  0.1197E+01  0.2296E+02
      6.590  0.9763E+00  0.2305E+02
      6.678  0.1235E+01  0.2316E+02
      6.766  0.1984E+01  0.2333E+02
      6.854  0.2221E+01  0.2353E+02
      6.942  0.2253E+01  0.2372E+02
      7.030  0.2574E+01  0.2395E+02
      7.118  0.3429E+01  0.2425E+02
      7.206  0.3720E+01  0.2458E+02
      7.294  0.2741E+01  0.2482E+02
      7.382  0.2264E+01  0.2502E+02
      7.470  0.2486E+01  0.2524E+02
      7.558  0.2282E+01  0.2544E+02
      7.646  0.1634E+01  0.2558E+02
      7.734  0.1684E+01  0.2573E+02
      7.822  0.1903E+01  0.2590E+02
      7.910  0.9938E+00  0.2598E+02
      7.998  0.1646E+00  0.2600E+02
      8.086  0.7368E-02  0.2600E+02
      8.174  0.8170E-04  0.2600E+02
      8.262  0.2128E-06  0.2600E+02
      8.350  0.1262E-09  0.2600E+02
      8.438  0.1673E-13  0.2600E+02
      8.526  0.0000E+00  0.2600E+02
      8.614  0.0000E+00  0.2600E+02
      8.702  0.0000E+00  0.2600E+02
      8.789  0.0000E+00  0.2600E+02
      8.877  0.1473E-15  0.2600E+02
      8.965  0.1754E-11  0.2600E+02
      9.053  0.4566E-08  0.2600E+02
      9.141  0.2713E-05  0.2600E+02
      9.229  0.3867E-03  0.2600E+02
      9.317  0.1455E-01  0.2600E+02
      9.405  0.1690E+00  0.2602E+02
      9.493  0.7169E+00  0.2608E+02
      9.581  0.1284E+01  0.2619E+02
      9.669  0.1420E+01  0.2632E+02
      9.757  0.1632E+01  0.2646E+02
      9.845  0.1776E+01  0.2662E+02
      9.933  0.1795E+01  0.2677E+02
     10.021  0.1536E+01  0.2691E+02
     10.109  0.1348E+01  0.2703E+02
     10.197  0.1642E+01  0.2717E+02
     10.285  0.1756E+01  0.2733E+02
     10.373  0.1214E+01  0.2743E+02
     10.461  0.1137E+01  0.2753E+02
     10.549  0.1377E+01  0.2766E+02
     10.637  0.1369E+01  0.2778E+02
     10.725  0.1314E+01  0.2789E+02
     10.813  0.1447E+01  0.2802E+02
     10.901  0.1400E+01  0.2814E+02
     10.988  0.1226E+01  0.2825E+02
     11.076  0.1034E+01  0.2834E+02
     11.164  0.9345E+00  0.2842E+02
     11.252  0.8589E+00  0.2850E+02
     11.340  0.9307E+00  0.2858E+02
     11.428  0.1254E+01  0.2869E+02
     11.516  0.1416E+01  0.2881E+02
     11.604  0.1313E+01  0.2893E+02
     11.692  0.1047E+01  0.2902E+02
     11.780  0.9974E+00  0.2911E+02
     11.868  0.1084E+01  0.2921E+02
     11.956  0.8944E+00  0.2928E+02
     12.044  0.5950E+00  0.2934E+02
     12.132  0.4208E+00  0.2937E+02
     12.220  0.4852E+00  0.2942E+02
     12.308  0.6620E+00  0.2947E+02
     12.396  0.7271E+00  0.2954E+02
     12.484  0.8474E+00  0.2961E+02
     12.572  0.1235E+01  0.2972E+02
     12.660  0.1727E+01  0.2987E+02
     12.748  0.2397E+01  0.3008E+02
     12.836  0.2548E+01  0.3031E+02
     12.924  0.2135E+01  0.3050E+02
     13.012  0.2180E+01  0.3069E+02
     13.099  0.1998E+01  0.3086E+02
     13.187  0.1673E+01  0.3101E+02
     13.275  0.2069E+01  0.3119E+02
     13.363  0.2052E+01  0.3137E+02
     13.451  0.1158E+01  0.3148E+02
     13.539  0.7534E+00  0.3154E+02
     13.627  0.7203E+00  0.3160E+02
     13.715  0.6042E+00  0.3166E+02
     13.803  0.5430E+00  0.3171E+02
     13.891  0.3955E+00  0.3174E+02
     13.979  0.3272E+00  0.3177E+02
     14.067  0.3226E+00  0.3180E+02
     14.155  0.3179E+00  0.3183E+02
     14.243  0.3776E+00  0.3186E+02
     14.331  0.4017E+00  0.3189E+02
     14.419  0.5549E+00  0.3194E+02
     14.507  0.4835E+00  0.3199E+02
     14.595  0.1498E+00  0.3200E+02
     14.683  0.1309E-01  0.3200E+02
     14.771  0.2898E-03  0.3200E+02
     14.859  0.1527E-05  0.3200E+02
     14.947  0.1842E-08  0.3200E+02
     15.035  0.4976E-12  0.3200E+02
     15.123  0.0000E+00  0.3200E+02
     15.211  0.0000E+00  0.3200E+02
     15.298  0.0000E+00  0.3200E+02
     15.386  0.0000E+00  0.3200E+02
     15.474  0.0000E+00  0.3200E+02
     15.562  0.0000E+00  0.3200E+02
     15.650  0.0000E+00  0.3200E+02
     15.65032045    -10.73756517  301      5.75700829      1.00000000
    -10.738  0.0000E+00  0.0000E+00  0.0000E+00  0.0000E+00  0.0000E+00  0.0000E+00  0.0000E+00  0.0000E+00  0.0000E+00  0.0000E+00  0.0000E+00  0.0000E+00  0.0000E+00  0.0000E+00  0.0000E+00  0.0000E+00
    -10.650  0.0000E+00  0.0000E+00  0.0000E+00  0.0000E+00  0.0000E+00  0.0000E+00  0.0000E+00  0.0000E+00  0.0000E+00  0.0000E+00  0.0000E+00  0.0000E+00  0.0000E+00  0.0000E+00  0.0000E+00  0.0000E+00
    -10.562  0.0000E+00  0.0000E+00  0.0000E+00  0.0000E+00  0.0000E+00  0.0000E+00  0.0000E+00  0.0000E+00  0.0000E+00  0.0000E+00  0.0000E+00  0.0000E+00  0.0000E+00  0.0000E+00  0.0000E+00  0.0000E+00
    -10.474  0.0000E+00  0.0000E+00  0.0000E+00  0.0000E+00  0.0000E+00  0.0000E+00  0.0000E+00  0.0000E+00  0.0000E+00  0.0000E+00  0.0000E+00  0.0000E+00  0.0000E+00  0.0000E+00  0.0000E+00  0.0000E+00
    -10.386  0.0000E+00  0.0000E+00  0.0000E+00  0.0000E+00  0.0000E+00  0.0000E+00  0.0000E+00  0.0000E+00  0.0000E+00  0.0000E+00  0.0000E+00  0.0000E+00  0.0000E+00  0.0000E+00  0.0000E+00  0.0000E+00
    -10.298  0.0000E+00  0.0000E+00  0.0000E+00  0.0000E+00  0.0000E+00  0.0000E+00  0.0000E+00  0.0000E+00  0.0000E+00  0.0000E+00  0.0000E+00  0.0000E+00  0.0000E+00  0.0000E+00  0.0000E+00  0.0000E+00
    -10.210  0.0000E+00  0.0000E+00  0.0000E+00  0.0000E+00  0.0000E+00  0.0000E+00  0.0000E+00  0.0000E+00  0.0000E+00  0.0000E+00  0.0000E+00  0.0000E+00  0.0000E+00  0.0000E+00  0.0000E+00  0.0000E+00
    -10.122  0.3621E-17  0.3405E-21  0.7814E-22  0.1021E-20  0.8081E-24  0.3094E-24  0.1102E-18  0.4725E-24  0.4400E-24  0.2500E-23  0.2718E-22  0.6584E-25  0.1845E-23  0.1987E-24  0.9053E-23  0.2931E-28
    -10.034  0.8145E-13  0.4957E-17  0.6735E-17  0.3196E-16  0.2305E-19  0.2498E-19  0.2482E-14  0.1363E-19  0.4055E-19  0.2247E-18  0.8505E-18  0.9419E-21  0.1659E-18  0.6415E-20  0.1315E-18  0.4091E-23
     -9.946  0.2966E-09  0.2206E-13  0.2990E-13  0.1423E-12  0.1216E-15  0.1260E-15  0.9040E-11  0.7195E-16  0.2069E-15  0.9997E-15  0.3785E-14  0.4168E-17  0.7410E-15  0.2849E-16  0.5849E-15  0.2495E-19
     -9.858  0.2427E-06  0.2287E-10  0.3090E-10  0.1475E-09  0.1540E-12  0.1537E-12  0.7401E-08  0.9110E-13  0.2548E-12  0.1035E-11  0.3922E-11  0.4300E-14  0.7706E-12  0.2943E-13  0.6060E-12  0.3489E-16
     -9.770  0.4580E-04  0.5738E-08  0.7717E-08  0.3702E-07  0.4913E-10  0.4745E-10  0.1397E-05  0.2905E-10  0.7920E-10  0.2589E-09  0.9839E-09  0.1077E-11  0.1937E-09  0.7356E-11  0.1520E-09  0.1129E-13
     -9.682  0.2076E-02  0.3707E-06  0.4949E-06  0.2393E-05  0.4252E-08  0.3989E-08  0.6339E-04  0.2514E-08  0.6688E-08  0.1660E-07  0.6356E-07  0.6987E-10  0.1250E-07  0.4741E-09  0.9824E-08  0.8757E-12
     -9.594  0.2416E-01  0.6813E-05  0.8975E-05  0.4398E-04  0.1119E-06  0.1026E-06  0.7391E-03  0.6626E-07  0.1720E-06  0.3008E-06  0.1169E-05  0.1304E-08  0.2277E-06  0.8739E-08  0.1809E-06  0.1753E-10
     -9.506  0.8080E-01  0.4180E-04  0.5371E-04  0.2700E-03  0.1059E-05  0.9572E-06  0.2482E-02  0.6316E-06  0.1598E-05  0.1799E-05  0.7198E-05  0.8286E-08  0.1368E-05  0.5458E-07  0.1115E-05  0.1080E-09
     -9.418  0.9785E-01  0.1102E-03  0.1348E-03  0.7121E-03  0.4557E-05  0.4098E-05  0.3042E-02  0.2753E-05  0.6768E-05  0.4545E-05  0.1915E-04  0.2330E-07  0.3453E-05  0.1509E-06  0.2966E-05  0.3355E-09
     -9.330  0.7199E-01  0.1750E-03  0.1957E-03  0.1131E-02  0.1165E-04  0.1052E-04  0.2306E-02  0.7177E-05  0.1707E-04  0.6724E-05  0.3083E-04  0.4054E-07  0.5090E-05  0.2603E-06  0.4764E-05  0.1050E-08
     -9.242  0.5811E-01  0.2242E-03  0.2149E-03  0.1450E-02  0.2220E-04  0.2025E-04  0.1962E-02  0.1401E-04  0.3215E-04  0.7575E-05  0.4007E-04  0.5644E-07  0.5739E-05  0.3639E-06  0.6182E-05  0.3040E-08
     -9.154  0.6521E-01  0.2691E-03  0.1901E-03  0.1740E-02  0.3618E-04  0.3341E-04  0.2418E-02  0.2346E-04  0.5177E-04  0.6874E-05  0.4870E-04  0.7256E-07  0.5177E-05  0.4733E-06  0.7514E-05  0.6595E-08
     -9.066  0.9573E-01  0.3357E-03  0.1140E-03  0.2174E-02  0.5450E-04  0.5113E-04  0.3866E-02  0.3633E-04  0.7725E-04  0.4222E-05  0.6134E-04  0.9526E-07  0.3145E-05  0.6230E-06  0.9461E-05  0.1154E-07
     -8.978  0.9628E-01  0.4482E-03  0.3400E-04  0.2903E-02  0.8005E-04  0.7627E-04  0.3942E-02  0.5475E-04  0.1125E-03  0.1314E-05  0.8233E-04  0.1255E-06  0.9568E-06  0.8160E-06  0.1269E-04  0.1812E-07
     -8.890  0.6219E-01  0.5702E-03  0.4428E-05  0.3692E-02  0.1161E-03  0.1113E-03  0.2447E-02  0.8155E-04  0.1603E-03  0.2451E-06  0.1056E-03  0.1577E-06  0.1401E-06  0.1023E-05  0.1627E-04  0.2558E-07
     -8.802  0.4322E-01  0.6726E-03  0.1450E-05  0.4376E-02  0.1645E-03  0.1604E-03  0.1609E-02  0.1192E-03  0.2253E-03  0.1720E-06  0.1267E-03  0.1928E-06  0.7396E-07  0.1261E-05  0.1940E-04  0.3493E-07
     -8.714  0.3535E-01  0.7643E-03  0.2251E-05  0.4959E-02  0.2286E-03  0.2233E-03  0.1267E-02  0.1714E-03  0.3048E-03  0.2488E-06  0.1455E-03  0.2365E-06  0.1281E-06  0.1548E-05  0.2233E-04  0.4701E-07
     -8.627  0.3058E-01  0.8507E-03  0.3767E-05  0.5548E-02  0.3126E-03  0.3067E-03  0.1061E-02  0.2436E-03  0.4064E-03  0.3754E-06  0.1650E-03  0.2929E-06  0.2113E-06  0.1915E-05  0.2522E-04  0.6464E-07
     -8.539  0.2693E-01  0.9352E-03  0.6260E-05  0.6125E-02  0.4236E-03  0.4184E-03  0.9072E-03  0.3442E-03  0.5360E-03  0.5755E-06  0.1851E-03  0.3546E-06  0.3262E-06  0.2333E-05  0.2818E-04  0.9051E-07
     -8.451  0.2402E-01  0.1023E-02  0.1046E-04  0.6703E-02  0.5777E-03  0.5617E-03  0.7865E-03  0.4917E-03  0.6944E-03  0.8651E-06  0.2062E-03  0.4177E-06  0.5131E-06  0.2754E-05  0.3137E-04  0.1222E-06
     -8.363  0.2160E-01  0.1111E-02  0.1774E-04  0.7364E-02  0.8010E-03  0.7708E-03  0.6879E-03  0.7182E-03  0.9161E-03  0.1301E-05  0.2307E-03  0.4852E-06  0.8411E-06  0.3279E-05  0.3465E-04  0.1623E-06
     -8.275  0.1945E-01  0.1200E-02  0.3166E-04  0.8012E-02  0.1157E-02  0.1066E-02  0.6032E-03  0.1102E-02  0.1211E-02  0.2121E-05  0.2555E-03  0.5762E-06  0.1444E-05  0.3906E-05  0.3801E-04  0.2012E-06
     -8.187  0.1776E-01  0.1291E-02  0.1402E-03  0.8772E-02  0.1949E-02  0.1608E-02  0.5357E-03  0.2018E-02  0.1715E-02  0.7493E-05  0.2846E-03  0.6898E-06  0.5668E-05  0.4682E-05  0.4147E-04  0.2476E-06
     -8.099  0.1795E-01  0.1457E-02  0.2451E-02  0.9789E-02  0.6411E-02  0.3743E-02  0.5247E-03  0.7523E-02  0.3512E-02  0.1180E-03  0.3236E-03  0.9343E-06  0.9371E-04  0.5903E-05  0.4778E-04  0.2994E-06
     -8.011  0.2626E-01  0.2989E-02  0.1752E-01  0.1426E-01  0.2805E-01  0.1289E-01  0.7415E-03  0.3472E-01  0.1096E-01  0.8461E-03  0.4833E-03  0.2719E-05  0.6708E-03  0.1137E-04  0.1036E-03  0.3813E-06
     -7.923  0.3564E-01  0.1082E-01  0.3849E-01  0.3354E-01  0.5906E-01  0.2606E-01  0.9843E-03  0.7420E-01  0.2185E-01  0.1906E-02  0.1163E-02  0.1061E-04  0.1491E-02  0.3230E-04  0.3901E-03  0.5429E-06
     -7.835  0.3319E-01  0.2874E-01  0.3185E-01  0.6344E-01  0.7731E-01  0.3931E-01  0.8493E-03  0.9483E-01  0.3424E-01  0.1662E-02  0.2256E-02  0.2561E-04  0.1263E-02  0.5962E-04  0.1071E-02  0.6991E-06
     -7.747  0.3086E-01  0.6054E-01  0.1646E-01  0.9259E-01  0.1070E+00  0.7122E-01  0.7139E-03  0.1250E+00  0.6292E-01  0.9203E-03  0.3429E-02  0.4854E-04  0.6725E-03  0.7581E-04  0.2311E-02  0.7498E-06
     -7.659  0.1765E-01  0.7131E-01  0.1194E-01  0.1083E+00  0.9026E-01  0.7035E-01  0.4363E-03  0.1036E+00  0.6150E-01  0.7158E-03  0.4087E-02  0.5449E-04  0.5020E-03  0.7846E-04  0.2725E-02  0.4933E-06
     -7.571  0.5323E-02  0.3509E-01  0.1075E-01  0.6430E-01  0.3648E-01  0.2511E-01  0.2013E-03  0.4189E-01  0.2175E-01  0.6555E-03  0.2421E-02  0.2600E-04  0.4643E-03  0.4374E-04  0.1332E-02  0.1237E-06
     -7.483  0.1767E-02  0.8383E-02  0.9439E-02  0.1506E-01  0.1641E-01  0.4569E-02  0.1350E-03  0.1942E-01  0.3886E-02  0.5615E-03  0.5629E-03  0.6587E-05  0.4239E-03  0.1038E-04  0.3180E-03  0.9199E-08
     -7.395  0.1137E-02  0.2070E-02  0.1144E-01  0.1864E-02  0.1371E-01  0.2335E-02  0.1195E-03  0.1683E-01  0.1896E-02  0.6793E-03  0.6977E-04  0.2090E-05  0.5282E-03  0.1691E-05  0.8081E-04  0.1806E-09
     -7.307  0.8682E-03  0.9208E-03  0.1680E-01  0.5876E-03  0.1196E-01  0.2184E-02  0.1048E-03  0.1513E-01  0.1721E-02  0.9948E-03  0.2304E-04  0.1097E-05  0.7840E-03  0.7383E-06  0.3737E-04  0.1227E-11
     -7.219  0.6179E-03  0.3974E-03  0.2786E-01  0.2647E-03  0.9062E-02  0.1767E-02  0.8138E-04  0.1176E-01  0.1360E-02  0.1626E-02  0.1088E-04  0.5061E-06  0.1311E-02  0.3614E-06  0.1672E-04  0.5843E-12
     -7.131  0.3278E-03  0.1210E-03  0.3706E-01  0.8226E-04  0.4901E-02  0.9915E-03  0.4536E-04  0.6479E-02  0.7494E-03  0.2135E-02  0.3477E-05  0.1544E-06  0.1752E-02  0.1136E-06  0.5233E-05  0.1114E-11
     -7.043  0.9145E-04  0.2010E-04  0.2171E-01  0.1367E-04  0.1371E-02  0.2824E-03  0.1298E-04  0.1833E-02  0.2111E-03  0.1244E-02  0.5928E-06  0.2496E-07  0.1029E-02  0.1874E-07  0.8910E-06  0.8219E-12
     -6.955  0.9768E-05  0.1396E-05  0.3999E-02  0.9442E-06  0.1462E-03  0.3039E-04  0.1405E-05  0.1968E-03  0.2258E-04  0.2285E-03  0.4230E-07  0.1684E-08  0.1897E-03  0.1291E-08  0.6380E-07  0.1661E-12
     -6.867  0.3230E-06  0.3273E-07  0.1991E-03  0.2195E-07  0.4825E-05  0.1007E-05  0.4678E-07  0.6517E-05  0.7458E-06  0.1136E-04  0.1023E-08  0.3847E-10  0.9447E-05  0.3022E-10  0.1550E-08  0.8397E-14
     -6.779  0.2897E-08  0.2227E-09  0.2461E-05  0.1481E-09  0.4321E-07  0.9046E-08  0.4214E-09  0.5850E-07  0.6682E-08  0.1403E-06  0.7194E-11  0.2555E-12  0.1168E-06  0.2057E-12  0.1095E-10  0.1008E-15
     -6.691  0.6499E-11  0.3986E-12  0.7160E-08  0.2629E-12  0.9679E-10  0.2030E-10  0.9476E-12  0.1312E-09  0.1497E-10  0.4082E-09  0.1328E-13  0.4463E-15  0.3400E-09  0.3668E-15  0.2027E-13  0.2773E-18
     -6.603  0.3466E-14  0.1761E-15  0.4746E-11  0.1152E-15  0.5155E-13  0.1082E-13  0.5061E-15  0.6998E-13  0.7975E-14  0.2705E-12  0.6027E-17  0.1922E-18  0.2254E-12  0.1605E-18  0.9219E-17  0.1708E-21
     -6.516  0.4384E-18  0.1849E-19  0.7033E-15  0.1165E-19  0.6331E-17  0.1321E-17  0.6408E-19  0.8601E-17  0.9727E-18  0.4007E-16  0.6316E-21  0.1961E-22  0.3341E-16  0.1613E-22  0.9905E-21  0.2312E-25
     -6.428  0.0000E+00  0.0000E+00  0.0000E+00  0.0000E+00  0.0000E+00  0.0000E+00  0.0000E+00  0.0000E+00  0.0000E+00  0.0000E+00  0.0000E+00  0.0000E+00  0.0000E+00  0.0000E+00  0.0000E+00  0.0000E+00
     -6.340  0.0000E+00  0.0000E+00  0.0000E+00  0.0000E+00  0.0000E+00  0.0000E+00  0.0000E+00  0.0000E+00  0.0000E+00  0.0000E+00  0.0000E+00  0.0000E+00  0.0000E+00  0.0000E+00  0.0000E+00  0.0000E+00
     -6.252  0.0000E+00  0.0000E+00  0.0000E+00  0.0000E+00  0.0000E+00  0.0000E+00  0.0000E+00  0.0000E+00  0.0000E+00  0.0000E+00  0.0000E+00  0.0000E+00  0.0000E+00  0.0000E+00  0.0000E+00  0.0000E+00
     -6.164  0.0000E+00  0.0000E+00  0.0000E+00  0.0000E+00  0.0000E+00  0.0000E+00  0.0000E+00  0.0000E+00  0.0000E+00  0.0000E+00  0.0000E+00  0.0000E+00  0.0000E+00  0.0000E+00  0.0000E+00  0.0000E+00
     -6.076  0.0000E+00  0.0000E+00  0.0000E+00  0.0000E+00  0.0000E+00  0.0000E+00  0.0000E+00  0.0000E+00  0.0000E+00  0.0000E+00  0.0000E+00  0.0000E+00  0.0000E+00  0.0000E+00  0.0000E+00  0.0000E+00
     -5.988  0.0000E+00  0.0000E+00  0.0000E+00  0.0000E+00  0.0000E+00  0.0000E+00  0.0000E+00  0.0000E+00  0.0000E+00  0.0000E+00  0.0000E+00  0.0000E+00  0.0000E+00  0.0000E+00  0.0000E+00  0.0000E+00
     -5.900  0.0000E+00  0.0000E+00  0.0000E+00  0.0000E+00  0.0000E+00  0.0000E+00  0.0000E+00  0.0000E+00  0.0000E+00  0.0000E+00  0.0000E+00  0.0000E+00  0.0000E+00  0.0000E+00  0.0000E+00  0.0000E+00
     -5.812  0.0000E+00  0.0000E+00  0.0000E+00  0.0000E+00  0.0000E+00  0.0000E+00  0.0000E+00  0.0000E+00  0.0000E+00  0.0000E+00  0.0000E+00  0.0000E+00  0.0000E+00  0.0000E+00  0.0000E+00  0.0000E+00
     -5.724  0.0000E+00  0.0000E+00  0.0000E+00  0.0000E+00  0.0000E+00  0.0000E+00  0.0000E+00  0.0000E+00  0.0000E+00  0.0000E+00  0.0000E+00  0.0000E+00  0.0000E+00  0.0000E+00  0.0000E+00  0.0000E+00
     -5.636  0.0000E+00  0.0000E+00  0.0000E+00  0.0000E+00  0.0000E+00  0.0000E+00  0.0000E+00  0.0000E+00  0.0000E+00  0.0000E+00  0.0000E+00  0.0000E+00  0.0000E+00  0.0000E+00  0.0000E+00  0.0000E+00
     -5.548  0.0000E+00  0.0000E+00  0.0000E+00  0.0000E+00  0.0000E+00  0.0000E+00  0.0000E+00  0.0000E+00  0.0000E+00  0.0000E+00  0.0000E+00  0.0000E+00  0.0000E+00  0.0000E+00  0.0000E+00  0.0000E+00
     -5.460  0.0000E+00  0.0000E+00  0.0000E+00  0.0000E+00  0.0000E+00  0.0000E+00  0.0000E+00  0.0000E+00  0.0000E+00  0.0000E+00  0.0000E+00  0.0000E+00  0.0000E+00  0.0000E+00  0.0000E+00  0.0000E+00
     -5.372  0.0000E+00  0.0000E+00  0.0000E+00  0.0000E+00  0.0000E+00  0.0000E+00  0.0000E+00  0.0000E+00  0.0000E+00  0.0000E+00  0.0000E+00  0.0000E+00  0.0000E+00  0.0000E+00  0.0000E+00  0.0000E+00
     -5.284  0.0000E+00  0.0000E+00  0.0000E+00  0.0000E+00  0.0000E+00  0.0000E+00  0.0000E+00  0.0000E+00  0.0000E+00  0.0000E+00  0.0000E+00  0.0000E+00  0.0000E+00  0.0000E+00  0.0000E+00  0.0000E+00
     -5.196  0.0000E+00  0.0000E+00  0.0000E+00  0.0000E+00  0.0000E+00  0.0000E+00  0.0000E+00  0.0000E+00  0.0000E+00  0.0000E+00  0.0000E+00  0.0000E+00  0.0000E+00  0.0000E+00  0.0000E+00  0.0000E+00
     -5.108  0.0000E+00  0.0000E+00  0.0000E+00  0.0000E+00  0.0000E+00  0.0000E+00  0.0000E+00  0.0000E+00  0.0000E+00  0.0000E+00  0.0000E+00  0.0000E+00  0.0000E+00  0.0000E+00  0.0000E+00  0.0000E+00
     -5.020  0.0000E+00  0.0000E+00  0.0000E+00  0.0000E+00  0.0000E+00  0.0000E+00  0.0000E+00  0.0000E+00  0.0000E+00  0.0000E+00  0.0000E+00  0.0000E+00  0.0000E+00  0.0000E+00  0.0000E+00  0.0000E+00
     -4.932  0.0000E+00  0.0000E+00  0.0000E+00  0.0000E+00  0.0000E+00  0.0000E+00  0.0000E+00  0.0000E+00  0.0000E+00  0.0000E+00  0.0000E+00  0.0000E+00  0.0000E+00  0.0000E+00  0.0000E+00  0.0000E+00
     -4.844  0.0000E+00  0.0000E+00  0.0000E+00  0.0000E+00  0.0000E+00  0.0000E+00  0.0000E+00  0.0000E+00  0.0000E+00  0.0000E+00  0.0000E+00  0.0000E+00  0.0000E+00  0.0000E+00  0.0000E+00  0.0000E+00
     -4.756  0.0000E+00  0.0000E+00  0.0000E+00  0.0000E+00  0.0000E+00  0.0000E+00  0.0000E+00  0.0000E+00  0.0000E+00  0.0000E+00  0.0000E+00  0.0000E+00  0.0000E+00  0.0000E+00  0.0000E+00  0.0000E+00
     -4.668  0.0000E+00  0.0000E+00  0.0000E+00  0.0000E+00  0.0000E+00  0.0000E+00  0.0000E+00  0.0000E+00  0.0000E+00  0.0000E+00  0.0000E+00  0.0000E+00  0.0000E+00  0.0000E+00  0.0000E+00  0.0000E+00
     -4.580  0.0000E+00  0.0000E+00  0.0000E+00  0.0000E+00  0.0000E+00  0.0000E+00  0.0000E+00  0.0000E+00  0.0000E+00  0.0000E+00  0.0000E+00  0.0000E+00  0.0000E+00  0.0000E+00  0.0000E+00  0.0000E+00
     -4.492  0.0000E+00  0.0000E+00  0.0000E+00  0.0000E+00  0.0000E+00  0.0000E+00  0.0000E+00  0.0000E+00  0.0000E+00  0.0000E+00  0.0000E+00  0.0000E+00  0.0000E+00  0.0000E+00  0.0000E+00  0.0000E+00
     -4.404  0.0000E+00  0.0000E+00  0.0000E+00  0.0000E+00  0.0000E+00  0.0000E+00  0.0000E+00  0.0000E+00  0.0000E+00  0.0000E+00  0.0000E+00  0.0000E+00  0.0000E+00  0.0000E+00  0.0000E+00  0.0000E+00
     -4.317  0.0000E+00  0.0000E+00  0.0000E+00  0.0000E+00  0.0000E+00  0.0000E+00  0.0000E+00  0.0000E+00  0.0000E+00  0.0000E+00  0.0000E+00  0.0000E+00  0.0000E+00  0.0000E+00  0.0000E+00  0.0000E+00
     -4.229  0.0000E+00  0.0000E+00  0.0000E+00  0.0000E+00  0.0000E+00  0.0000E+00  0.0000E+00  0.0000E+00  0.0000E+00  0.0000E+00  0.0000E+00  0.0000E+00  0.0000E+00  0.0000E+00  0.0000E+00  0.0000E+00
     -4.141  0.0000E+00  0.0000E+00  0.0000E+00  0.0000E+00  0.0000E+00  0.0000E+00  0.0000E+00  0.0000E+00  0.0000E+00  0.0000E+00  0.0000E+00  0.0000E+00  0.0000E+00  0.0000E+00  0.0000E+00  0.0000E+00
     -4.053  0.0000E+00  0.0000E+00  0.0000E+00  0.0000E+00  0.0000E+00  0.0000E+00  0.0000E+00  0.0000E+00  0.0000E+00  0.0000E+00  0.0000E+00  0.0000E+00  0.0000E+00  0.0000E+00  0.0000E+00  0.0000E+00
     -3.965  0.0000E+00  0.0000E+00  0.0000E+00  0.0000E+00  0.0000E+00  0.0000E+00  0.0000E+00  0.0000E+00  0.0000E+00  0.0000E+00  0.0000E+00  0.0000E+00  0.0000E+00  0.0000E+00  0.0000E+00  0.0000E+00
     -3.877  0.0000E+00  0.0000E+00  0.0000E+00  0.0000E+00  0.0000E+00  0.0000E+00  0.0000E+00  0.0000E+00  0.0000E+00  0.0000E+00  0.0000E+00  0.0000E+00  0.0000E+00  0.0000E+00  0.0000E+00  0.0000E+00
     -3.789  0.0000E+00  0.0000E+00  0.0000E+00  0.0000E+00  0.0000E+00  0.0000E+00  0.0000E+00  0.0000E+00  0.0000E+00  0.0000E+00  0.0000E+00  0.0000E+00  0.0000E+00  0.0000E+00  0.0000E+00  0.0000E+00
     -3.701  0.0000E+00  0.0000E+00  0.0000E+00  0.0000E+00  0.0000E+00  0.0000E+00  0.0000E+00  0.0000E+00  0.0000E+00  0.0000E+00  0.0000E+00  0.0000E+00  0.0000E+00  0.0000E+00  0.0000E+00  0.0000E+00
     -3.613  0.0000E+00  0.0000E+00  0.0000E+00  0.0000E+00  0.0000E+00  0.0000E+00  0.0000E+00  0.0000E+00  0.0000E+00  0.0000E+00  0.0000E+00  0.0000E+00  0.0000E+00  0.0000E+00  0.0000E+00  0.0000E+00
     -3.525  0.0000E+00  0.0000E+00  0.0000E+00  0.0000E+00  0.0000E+00  0.0000E+00  0.0000E+00  0.0000E+00  0.0000E+00  0.0000E+00  0.0000E+00  0.0000E+00  0.0000E+00  0.0000E+00  0.0000E+00  0.0000E+00
     -3.437  0.0000E+00  0.0000E+00  0.0000E+00  0.0000E+00  0.0000E+00  0.0000E+00  0.0000E+00  0.0000E+00  0.0000E+00  0.0000E+00  0.0000E+00  0.0000E+00  0.0000E+00  0.0000E+00  0.0000E+00  0.0000E+00
     -3.349  0.0000E+00  0.0000E+00  0.0000E+00  0.0000E+00  0.0000E+00  0.0000E+00  0.0000E+00  0.0000E+00  0.0000E+00  0.0000E+00  0.0000E+00  0.0000E+00  0.0000E+00  0.0000E+00  0.0000E+00  0.0000E+00
     -3.261  0.0000E+00  0.0000E+00  0.0000E+00  0.0000E+00  0.0000E+00  0.0000E+00  0.0000E+00  0.0000E+00  0.0000E+00  0.0000E+00  0.0000E+00  0.0000E+00  0.0000E+00  0.0000E+00  0.0000E+00  0.0000E+00
     -3.173  0.0000E+00  0.0000E+00  0.0000E+00  0.0000E+00  0.0000E+00  0.0000E+00  0.0000E+00  0.0000E+00  0.0000E+00  0.0000E+00  0.0000E+00  0.0000E+00  0.0000E+00  0.0000E+00  0.0000E+00  0.0000E+00
     -3.085  0.0000E+00  0.0000E+00  0.0000E+00  0.0000E+00  0.0000E+00  0.0000E+00  0.0000E+00  0.0000E+00  0.0000E+00  0.0000E+00  0.0000E+00  0.0000E+00  0.0000E+00  0.0000E+00  0.0000E+00  0.0000E+00
     -2.997  0.0000E+00  0.0000E+00  0.0000E+00  0.0000E+00  0.0000E+00  0.0000E+00  0.0000E+00  0.0000E+00  0.0000E+00  0.0000E+00  0.0000E+00  0.0000E+00  0.0000E+00  0.0000E+00  0.0000E+00  0.0000E+00
     -2.909  0.0000E+00  0.0000E+00  0.0000E+00  0.0000E+00  0.0000E+00  0.0000E+00  0.0000E+00  0.0000E+00  0.0000E+00  0.0000E+00  0.0000E+00  0.0000E+00  0.0000E+00  0.0000E+00  0.0000E+00  0.0000E+00
     -2.821  0.0000E+00  0.0000E+00  0.0000E+00  0.0000E+00  0.0000E+00  0.0000E+00  0.0000E+00  0.0000E+00  0.0000E+00  0.0000E+00  0.0000E+00  0.0000E+00  0.0000E+00  0.0000E+00  0.0000E+00  0.0000E+00
     -2.733  0.0000E+00  0.0000E+00  0.0000E+00  0.0000E+00  0.0000E+00  0.0000E+00  0.0000E+00  0.0000E+00  0.0000E+00  0.0000E+00  0.0000E+00  0.0000E+00  0.0000E+00  0.0000E+00  0.0000E+00  0.0000E+00