    3    3    1    1
  0.2160751E+02  0.3771498E-09  0.3771498E-09  0.5262074E-09  0.5000000E-15
  1.000000000000000E-004
  CAR 
 unknown system                          
     22    180     16
 
  0.0000000E+00  0.0000000E+00  0.0000000E+00  0.5555556E-02
    1       -9.538116   1.000000
    2       -7.135314   1.000000
    3       -1.061960   1.000000
    4       -0.353039   1.000000
    5       -0.352640   1.000000
    6        1.907248   1.000000
    7        1.907343   1.000000
    8        3.185057   1.000000
    9        4.686988   1.000000
   10        4.687312   1.000000
   11        5.933018   0.006402
   12        7.149864   0.000000
   13        7.149937   0.000000
   14        9.510345   0.000000
   15        9.527918   0.000000
   16       13.019522   0.000000
 
  0.2631579E-01  0.0000000E+00  0.0000000E+00  0.5555556E-02
    1       -9.530874   1.000000
    2       -7.137748   1.000000
    3       -1.053099   1.000000
    4       -0.348804   1.000000
    5       -0.348123   1.000000
    6        1.898266   1.000000
    7        1.901671   1.000000
    8        3.171019   1.000000
    9        4.654400   1.000000
   10        4.682044   1.000000
   11        5.920451   0.010405
   12        7.121644   0.000000
   13        7.148964   0.000000
   14        9.558629   0.000000
   15        9.590120   0.000000
   16       12.984819   0.000000
 
  0.5263158E-01  0.0000000E+00  0.0000000E+00  0.5555556E-02
    1       -9.509224   1.000000
    2       -7.145013   1.000000
    3       -1.026623   1.000000
    4       -0.336734   1.000000
    5       -0.334088   1.000000
    6        1.870414   1.000000
    7        1.885102   1.000000
    8        3.128338   1.000000
    9        4.564075   1.000000
   10        4.666256   1.000000
   11        5.879112   0.042101
   12        7.051523   0.000000
   13        7.147024   0.000000
   14        9.696779   0.000000
   15        9.762583   0.000000
   16       12.880950   0.000000
 
  0.7894737E-01  0.0000000E+00  0.0000000E+00  0.5555556E-02
    1       -9.473395   1.000000
    2       -7.156948   1.000000
    3       -0.982902   1.000000
    4       -0.316548   1.000000
    5       -0.310716   1.000000
    6        1.821366   1.000000
    7        1.859287   1.000000
    8        3.056264   1.000000
    9        4.436958   1.000000
   10        4.637808   1.000000
   11        5.799514   0.273878
   12        6.971873   0.000000
   13        7.146956   0.000000
   14        9.907653   0.000000
   15       10.011459   0.000000
   16       12.739313   0.000000
 
  0.1052632E+00  0.0000000E+00  0.0000000E+00  0.5555556E-02
    1       -9.423772   1.000000
    2       -7.173353   1.000000
    3       -0.922633   1.000000
    4       -0.287913   1.000000
    5       -0.278922   1.000000
    6        1.746406   1.000000
    7        1.826164   1.000000
    8        2.956603   1.000000
    9        4.297349   1.000000
   10        4.594145   1.000000
   11        5.672674   0.883499
   12        6.911661   0.000000
   13        7.152229   0.000000
   14       10.171719   0.000000
   15       10.291909   0.000000
   16       12.595878   0.000000
 
  0.1315789E+00  0.0000000E+00  0.0000000E+00  0.5555556E-02
    1       -9.360908   1.000000
    2       -7.193938   1.000000
    3       -0.846981   1.000000
    4       -0.250293   1.000000
    5       -0.239464   1.000000
    6        1.639298   1.000000
    7        1.788583   1.000000
    8        2.837341   1.000000
    9        4.163914   1.000000
   10        4.532878   1.000000
   11        5.498982   0.999868
   12        6.882274   0.000000
   13        7.166339   0.000000
   14       10.471787   0.000000
   15       10.546048   0.000000
   16       12.503539   0.000000
 
  0.1578947E+00  0.0000000E+00  0.0000000E+00  0.5555556E-02
    1       -9.285529   1.000000
    2       -7.218378   1.000000
    3       -0.757858   1.000000
    4       -0.203011   1.000000
    5       -0.193477   1.000000
    6        1.493881   1.000000
    7        1.749677   1.000000
    8        2.713092   1.000000
    9        4.044886   1.000000
   10        4.452489   1.000000
   11        5.288973   1.000000
   12        6.878054   0.000000
   13        7.191766   0.000000
   14       10.704200   0.000000
   15       10.793473   0.000000
   16       12.526658   0.000000
 
  0.1842105E+00  0.0000000E+00  0.0000000E+00  0.5555556E-02
    1       -9.198559   1.000000
    2       -7.246329   1.000000
    3       -0.658554   1.000000
    4       -0.144872   1.000000
    5       -0.142478   1.000000
    6        1.308910   1.000000
    7        1.712879   1.000000
    8        2.599101   1.000000
    9        3.939070   1.000000
   10        4.352721   1.000000
   11        5.056543   1.000000
   12        6.885696   0.000000
   13        7.229353   0.000000
   14       10.728322   0.000000
   15       11.121932   0.000000
   16       12.694510   0.000000
 
  0.2105263E+00  0.0000000E+00  0.0000000E+00  0.5555556E-02
    1       -9.101117   1.000000
    2       -7.277434   1.000000
    3       -0.554757   1.000000
    4       -0.088264   1.000000
    5       -0.073579   1.000000
    6        1.092645   1.000000
    7        1.681885   1.000000
    8        2.504331   1.000000
    9        3.840235   1.000000
   10        4.234613   1.000000
   11        4.814048   1.000000
   12        6.891668   0.000000
   13        7.278374   0.000000
   14       10.651426   0.000000
   15       11.438980   0.000000
   16       12.953882   0.000000
 
  0.2368421E+00  0.0000000E+00  0.0000000E+00  0.5555556E-02
    1       -8.994557   1.000000
    2       -7.311403   1.000000
    3       -0.456854   1.000000
    4       -0.033126   1.000000
    5        0.013725   1.000000
    6        0.862830   1.000000
    7        1.660244   1.000000
    8        2.429745   1.000000
    9        3.740119   1.000000
   10        4.100190   1.000000
   11        4.571330   1.000000
   12        6.884953   0.000000
   13        7.336755   0.000000
   14       10.532867   0.000000
   15       11.716757   0.000000
   16       13.202611   0.000000
 
  0.2631579E+00  0.0000000E+00  0.0000000E+00  0.5555556E-02
    1       -8.880448   1.000000
    2       -7.348010   1.000000
    3       -0.383248   1.000000
    4        0.020659   1.000000
    5        0.119326   1.000000
    6        0.648200   1.000000
    7        1.651789   1.000000
    8        2.372278   1.000000
    9        3.630800   1.000000
   10        3.952060   1.000000
   11        4.336303   1.000000
   12        6.858743   0.000000
   13        7.401640   0.000000
   14       10.414368   0.000000
   15       11.916083   0.000000
   16       13.331701   0.000000
 
  0.2894737E+00  0.0000000E+00  0.0000000E+00  0.5555556E-02
    1       -8.760612   1.000000
    2       -7.387172   1.000000
    3       -0.364976   1.000000
    4        0.070555   1.000000
    5        0.234635   1.000000
    6        0.498702   1.000000
    7        1.659772   1.000000
    8        2.327519   1.000000
    9        3.505597   1.000000
   10        3.793056   1.000000
   11        4.114519   1.000000
   12        6.811063   0.000000
   13        7.469792   0.000000
   14       10.317568   0.000000
   15       12.003657   0.000000
   16       13.304453   0.000000
 
  0.3157895E+00  0.0000000E+00  0.0000000E+00  0.5555556E-02
    1       -8.637092   1.000000
    2       -7.428979   1.000000
    3       -0.433381   1.000000
    4        0.114365   1.000000
    5        0.306379   1.000000
    6        0.507219   1.000000
    7        1.686866   1.000000
    8        2.291942   1.000000
    9        3.362224   1.000000
   10        3.625884   1.000000
   11        3.907862   1.000000
   12        6.745244   0.000000
   13        7.538011   0.000000
   14       10.250618   0.000000
   15       11.984905   0.000000
   16       13.202937   0.000000
 
  0.3421053E+00  0.0000000E+00  0.0000000E+00  0.5555556E-02
    1       -8.512130   1.000000
    2       -7.473678   1.000000
    3       -0.576117   1.000000
    4        0.150718   1.000000
    5        0.344512   1.000000
    6        0.656207   1.000000
    7        1.734962   1.000000
    8        2.262499   1.000000
    9        3.205067   1.000000
   10        3.453253   1.000000
   11        3.712946   1.000000
   12        6.668572   0.000000
   13        7.603315   0.000000
   14       10.213013   0.000000
   15       11.898743   0.000000
   16       13.089127   0.000000
 
  0.3684211E+00  0.0000000E+00  0.0000000E+00  0.5555556E-02
    1       -8.388107   1.000000
    2       -7.521811   1.000000
    3       -0.747219   1.000000
    4        0.179033   1.000000
    5        0.405313   1.000000
    6        0.845073   1.000000
    7        1.804410   1.000000
    8        2.237196   1.000000
    9        3.044093   1.000000
   10        3.277530   1.000000
   11        3.523290   1.000000
   12        6.589966   0.000000
   13        7.663035   0.000000
   14       10.199332   0.000000
   15       11.783902   0.000000
   16       12.984681   0.000000
 
  0.3947368E+00  0.0000000E+00  0.0000000E+00  0.5555556E-02
    1       -8.267441   1.000000
    2       -7.574173   1.000000
    3       -0.912764   1.000000
    4        0.199520   1.000000
    5        0.479929   1.000000
    6        1.045799   1.000000
    7        1.894249   1.000000
    8        2.215455   1.000000
    9        2.890244   1.000000
   10        3.100734   1.000000
   11        3.334495   1.000000
   12        6.517592   0.000000
   13        7.714899   0.000000
   14       10.202109   0.000000
   15       11.666135   0.000000
   16       12.897292   0.000000
 
  0.4210526E+00  0.0000000E+00  0.0000000E+00  0.5555556E-02
    1       -8.152407   1.000000
    2       -7.631623   1.000000
    3       -1.054264   1.000000
    4        0.213517   1.000000
    5        0.555725   1.000000
    6        1.243949   1.000000
    7        2.002912   1.000000
    8        2.200233   1.000000
    9        2.752416   1.000000
   10        2.925155   1.000000
   11        3.149430   1.000000
   12        6.457594   0.000000
   13        7.757094   0.000000
   14       10.213819   0.000000
   15       11.561380   0.000000
   16       12.829500   0.000000
 
  0.4473684E+00  0.0000000E+00  0.0000000E+00  0.5555556E-02
    1       -8.045264   1.000000
    2       -7.695028   1.000000
    3       -1.161467   1.000000
    4        0.222232   1.000000
    5        0.621676   1.000000
    6        1.420176   1.000000
    7        2.127717   1.000000
    8        2.201119   1.000000
    9        2.631241   1.000000
   10        2.753047   1.000000
   11        2.982493   1.000000
   12        6.413411   0.000000
   13        7.788221   0.000000
   14       10.227699   0.000000
   15       11.479748   0.000000
   16       12.781507   0.000000
 
  0.4736842E+00  0.0000000E+00  0.0000000E+00  0.5555556E-02
    1       -7.948902   1.000000
    2       -7.764032   1.000000
    3       -1.228111   1.000000
    4        0.226799   1.000000
    5        0.667210   1.000000
    6        1.545415   1.000000
    7        2.232488   1.000000
    8        2.264900   1.000000
    9        2.521103   1.000000
   10        2.587620   1.000000
   11        2.863277   1.000000
   12        6.386589   0.000000
   13        7.807260   0.000000
   14       10.238393   0.000000
   15       11.428029   0.000000
   16       12.753035   0.000000
 
  0.5000000E+00  0.0000000E+00  0.0000000E+00  0.5555556E-02
    1       -7.886491   1.000000
    2       -7.817117   1.000000
    3       -1.250663   1.000000
    4        0.228283   1.000000
    5        0.683606   1.000000
    6        1.590623   1.000000
    7        2.268515   1.000000
    8        2.381026   1.000000
    9        2.456774   1.000000
   10        2.462201   1.000000
   11        2.820869   1.000000
   12        6.377643   0.000000
   13        7.813699   0.000000
   14       10.242377   0.000000
   15       11.410322   0.000000
   16       12.743623   0.000000
 
  0.5000000E+00  0.0000000E+00  0.0000000E+00  0.5555556E-02
    1       -7.886491   1.000000
    2       -7.817117   1.000000
    3       -1.250663   1.000000
    4        0.228283   1.000000
    5        0.683606   1.000000
    6        1.590623   1.000000
    7        2.268515   1.000000
    8        2.381026   1.000000
    9        2.456774   1.000000
   10        2.462201   1.000000
   11        2.820869   1.000000
   12        6.377643   0.000000
   13        7.813699   0.000000
   14       10.242377   0.000000
   15       11.410322   0.000000
   16       12.743622   0.000000
 
  0.4912263E+00  0.1754211E-01  0.0000000E+00  0.5555556E-02
    1       -7.886066   1.000000
    2       -7.816242   1.000000
    3       -1.248404   1.000000
    4        0.224748   1.000000
    5        0.684969   1.000000
    6        1.589497   1.000000
    7        2.260795   1.000000
    8        2.382966   1.000000
    9        2.400176   1.000000
   10        2.460690   1.000000
   11        2.891146   1.000000
   12        6.374684   0.000000
   13        7.793619   0.000000
   14       10.241017   0.000000
   15       11.435104   0.000000
   16       12.685452   0.000000
 
  0.4824526E+00  0.3508421E-01  0.0000000E+00  0.5555556E-02
    1       -7.884804   1.000000
    2       -7.813691   1.000000
    3       -1.241721   1.000000
    4        0.214523   1.000000
    5        0.689030   1.000000
    6        1.585530   1.000000
    7        2.234149   1.000000
    8        2.249850   1.000000
    9        2.445576   1.000000
   10        2.456461   1.000000
   11        3.028781   1.000000
   12        6.365761   0.000000
   13        7.735206   0.000000
   14       10.236549   0.000000
   15       11.507653   0.000000
   16       12.574054   0.000000
 
  0.4736789E+00  0.5262632E-01  0.0000000E+00  0.5555556E-02
    1       -7.882704   1.000000
    2       -7.809484   1.000000
    3       -1.230579   1.000000
    4        0.198406   1.000000
    5        0.695591   1.000000
    6        1.577515   1.000000
    7        2.065532   1.000000
    8        2.248478   1.000000
    9        2.449395   1.000000
   10        2.504661   1.000000
   11        3.179104   1.000000
   12        6.350881   0.000000
   13        7.643222   0.000000
   14       10.227851   0.000000
   15       11.623158   0.000000
   16       12.463747   0.000000
 
  0.4649053E+00  0.7016842E-01  0.0000000E+00  0.5555556E-02
    1       -7.879774   1.000000
    2       -7.803758   1.000000
    3       -1.215135   1.000000
    4        0.177365   1.000000
    5        0.704240   1.000000
    6        1.564330   1.000000
    7        1.891439   1.000000
    8        2.261497   1.000000
    9        2.439541   1.000000
   10        2.572508   1.000000
   11        3.327967   1.000000
   12        6.329993   0.000000
   13        7.524027   0.000000
   14       10.213323   0.000000
   15       11.775098   0.000000
   16       12.372050   0.000000
 
  0.4561316E+00  0.8771053E-01  0.0000000E+00  0.5555556E-02
    1       -7.876018   1.000000
    2       -7.796673   1.000000
    3       -1.195551   1.000000
    4        0.152660   1.000000
    5        0.714281   1.000000
    6        1.545572   1.000000
    7        1.717426   1.000000
    8        2.289809   1.000000
    9        2.427000   1.000000
   10        2.646906   1.000000
   11        3.470474   1.000000
   12        6.303088   0.000000
   13        7.384359   0.000000
   14       10.191366   0.000000
   15       11.956556   0.000000
   16       12.306505   0.000000
 
  0.4473579E+00  0.1052526E+00  0.0000000E+00  0.5555556E-02
    1       -7.871434   1.000000
    2       -7.788443   1.000000
    3       -1.172033   1.000000
    4        0.125586   1.000000
    5        0.724244   1.000000
    6        1.521818   1.000000
    7        1.547384   1.000000
    8        2.332236   1.000000
    9        2.411887   1.000000
   10        2.726636   1.000000
   11        3.603992   1.000000
   12        6.270214   0.000000
   13        7.230466   0.000000
   14       10.160931   0.000000
   15       12.161050   0.000000
   16       12.271073   0.000000
 
  0.4385842E+00  0.1227947E+00  0.0000000E+00  0.5555556E-02
    1       -7.866033   1.000000
    2       -7.779313   1.000000
    3       -1.144841   1.000000
    4        0.097463   1.000000
    5        0.731428   1.000000
    6        1.385804   1.000000
    7        1.494281   1.000000
    8        2.386527   1.000000
    9        2.394363   1.000000
   10        2.810909   1.000000
   11        3.726701   1.000000
   12        6.231623   0.000000
   13        7.067771   0.000000
   14       10.122017   0.000000
   15       12.267401   0.000000
   16       12.382819   0.000000
 
  0.4298105E+00  0.1403368E+00  0.0000000E+00  0.5555556E-02
    1       -7.859859   1.000000
    2       -7.769590   1.000000
    3       -1.114371   1.000000
    4        0.069321   1.000000
    5        0.730030   1.000000
    6        1.239864   1.000000
    7        1.464276   1.000000
    8        2.374500   1.000000
    9        2.449891   1.000000
   10        2.898958   1.000000
   11        3.836991   1.000000
   12        6.187704   0.000000
   13        6.900843   0.000000
   14       10.075821   0.000000
   15       12.294984   0.000000
   16       12.616758   0.000000
 
  0.4210368E+00  0.1578789E+00  0.0000000E+00  0.5555556E-02
    1       -7.852891   1.000000
    2       -7.759597   1.000000
    3       -1.081047   1.000000
    4        0.042326   1.000000
    5        0.708214   1.000000
    6        1.122686   1.000000
    7        1.433146   1.000000
    8        2.352603   1.000000
    9        2.519723   1.000000
   10        2.990377   1.000000
   11        3.933589   1.000000
   12        6.139234   0.000000
   13        6.733609   0.000000
   14       10.024540   0.000000
   15       12.351556   0.000000
   16       12.858290   0.000000
 
  0.4122632E+00  0.1754211E+00  0.0000000E+00  0.5555556E-02
    1       -7.845149   1.000000
    2       -7.749728   1.000000
    3       -1.045433   1.000000
    4        0.017112   1.000000
    5        0.650684   1.000000
    6        1.050755   1.000000
    7        1.401821   1.000000
    8        2.328899   1.000000
    9        2.593438   1.000000
   10        3.084441   1.000000
   11        4.015095   1.000000
   12        6.087274   0.000002
   13        6.569533   0.000000
   14        9.970871   0.000000
   15       12.433494   0.000000
   16       13.103020   0.000000
 
  0.4034895E+00  0.1929632E+00  0.0000000E+00  0.5555556E-02
    1       -7.836644   1.000000
    2       -7.740398   1.000000
    3       -1.008245   1.000000
    4       -0.005656   1.000000
    5        0.557550   1.000000
    6        1.025002   1.000000
    7        1.371184   1.000000
    8        2.303791   1.000000
    9        2.668642   1.000000
   10        3.180658   1.000000
   11        4.080226   1.000000
   12        6.033231   0.000047
   13        6.411742   0.000000
   14        9.917531   0.000000
   15       12.536241   0.000000
   16       13.346399   0.000000
 
  0.3947158E+00  0.2105053E+00  0.0000000E+00  0.5555556E-02
    1       -7.827382   1.000000
    2       -7.732040   1.000000
    3       -0.970399   1.000000
    4       -0.025209   1.000000
    5        0.447033   1.000000
    6        1.028638   1.000000
    7        1.341900   1.000000
    8        2.277822   1.000000
    9        2.743100   1.000000
   10        3.278251   1.000000
   11        4.127754   1.000000
   12        5.978945   0.000849
   13        6.263385   0.000000
   14        9.866912   0.000000
   15       12.654521   0.000000
   16       13.583331   0.000000
 
  0.3859421E+00  0.2280474E+00  0.0000000E+00  0.5555556E-02
    1       -7.817365   1.000000
    2       -7.725156   1.000000
    3       -0.933043   1.000000
    4       -0.041440   1.000000
    5        0.334716   1.000000
    6        1.047057   1.000000
    7        1.314378   1.000000
    8        2.251591   1.000000
    9        2.814510   1.000000
   10        3.376340   1.000000
   11        4.156528   1.000000
   12        5.926429   0.008288
   13        6.127419   0.000000
   14        9.820899   0.000000
   15       12.782270   0.000000
   16       13.807755   0.000000
 
  0.3771684E+00  0.2455895E+00  0.0000000E+00  0.5555556E-02
    1       -7.806637   1.000000
    2       -7.720233   1.000000
    3       -0.897653   1.000000
    4       -0.053866   1.000000
    5        0.229363   1.000000
    6        1.072538   1.000000
    7        1.288825   1.000000
    8        2.225790   1.000000
    9        2.880626   1.000000
   10        3.473927   1.000000
   11        4.165626   1.000000
   12        5.877707   0.043917
   13        6.007057   0.000203
   14        9.780832   0.000000
   15       12.912394   0.000000
   16       14.012167   0.000000
 
  0.3683947E+00  0.2631316E+00  0.0000000E+00  0.5555556E-02
    1       -7.795194   1.000000
    2       -7.717777   1.000000
    3       -0.865967   1.000000
    4       -0.062345   1.000000
    5        0.136306   1.000000
    6        1.101076   1.000000
    7        1.265511   1.000000
    8        2.201437   1.000000
    9        2.939068   1.000000
   10        3.570128   1.000000
   11        4.154730   1.000000
   12        5.834682   0.135999
   13        5.905429   0.017909
   14        9.747592   0.000000
   15       13.036510   0.000000
   16       14.187405   0.000000
 
  0.3596211E+00  0.2806737E+00  0.0000000E+00  0.5555556E-02
    1       -7.783039   1.000000
    2       -7.718295   1.000000
    3       -0.839905   1.000000
    4       -0.066772   1.000000
    5        0.059290   1.000000
    6        1.129904   1.000000
    7        1.244579   1.000000
    8        2.179750   1.000000
    9        2.987455   1.000000
   10        3.664180   1.000000
   11        4.124193   1.000000
   12        5.798732   0.277577
   13        5.825551   0.166187
   14        9.721661   0.000000
   15       13.144903   0.000000
   16       14.323416   0.000000
 
  0.3508474E+00  0.2982158E+00  0.0000000E+00  0.5555556E-02
    1       -7.770201   1.000000
    2       -7.722268   1.000000
    3       -0.821202   1.000000
    4       -0.067118   1.000000
    5        0.001029   1.000000
    6        1.156804   1.000000
    7        1.226033   1.000000
    8        2.162180   1.000000
    9        3.023567   1.000000
   10        3.755571   1.000000
   11        4.075211   1.000000
   12        5.769966   0.427301
   13        5.770577   0.423914
   14        9.703231   0.000000
   15       13.227527   0.000000
   16       14.411975   0.000000
 
  0.3420737E+00  0.3157579E+00  0.0000000E+00  0.5555556E-02
    1       -7.756684   1.000000
    2       -7.730157   1.000000
    3       -0.810704   1.000000
    4       -0.063436   1.000000
    5       -0.037107   1.000000
    6        1.179578   1.000000
    7        1.209869   1.000000
    8        2.150389   1.000000
    9        3.045694   1.000000
   10        3.844217   1.000000
   11        4.009799   1.000000
   12        5.740359   0.593074
   13        5.750210   0.538297
   14        9.692285   0.000000
   15       13.277082   0.000000
   16       14.450871   0.000000
 
  0.3333000E+00  0.3333000E+00  0.0000000E+00  0.5555556E-02
    1       -7.742555   1.000000
    2       -7.742354   1.000000
    3       -0.807695   1.000000
    4       -0.055986   1.000000
    5       -0.055562   1.000000
    6        1.195899   1.000000
    7        1.196051   1.000000
    8        2.146007   1.000000
    9        3.053026   1.000000
   10        3.930197   1.000000
   11        3.930642   1.000000
   12        5.737016   0.611311
   13        5.737116   0.610766
   14        9.688660   0.000000
   15       13.292573   0.000000
   16       14.445707   0.000000
 
  0.3333000E+00  0.3333000E+00  0.0000000E+00  0.5555556E-02
    1       -7.742555   1.000000
    2       -7.742353   1.000000
    3       -0.807695   1.000000
    4       -0.055993   1.000000
    5       -0.055562   1.000000
    6        1.195899   1.000000
    7        1.196051   1.000000
    8        2.146007   1.000000
    9        3.053026   1.000000
   10        3.930197   1.000000
   11        3.930642   1.000000
   12        5.737016   0.611311
   13        5.737116   0.610766
   14        9.688660   0.000000
   15       13.292566   0.000000
   16       14.445695   0.000000
 
  0.3157579E+00  0.3157579E+00  0.0000000E+00  0.5555556E-02
    1       -7.781372   1.000000
    2       -7.711987   1.000000
    3       -0.813019   1.000000
    4       -0.045693   1.000000
    5       -0.029692   1.000000
    6        1.174606   1.000000
    7        1.203456   1.000000
    8        2.165568   1.000000
    9        3.026559   1.000000
   10        3.742869   1.000000
   11        4.097661   1.000000
   12        5.729493   0.651409
   13        5.804081   0.252797
   14        9.702621   0.000000
   15       13.248217   0.000000
   16       14.346993   0.000000
 
  0.2982158E+00  0.2982158E+00  0.0000000E+00  0.5555556E-02
    1       -7.840642   1.000000
    2       -7.679157   1.000000
    3       -0.810359   1.000000
    4        0.001499   1.000000
    5        0.008085   1.000000
    6        1.159251   1.000000
    7        1.171959   1.000000
    8        2.223789   1.000000
    9        2.961975   1.000000
   10        3.538450   1.000000
   11        4.260199   1.000000
   12        5.741173   0.588598
   13        5.948656   0.003361
   14        9.742859   0.000000
   15       13.159662   0.000000
   16       14.179109   0.000000
 
  0.2806737E+00  0.2806737E+00  0.0000000E+00  0.5555556E-02
    1       -7.920689   1.000000
    2       -7.643986   1.000000
    3       -0.778460   1.000000
    4        0.053614   1.000000
    5        0.057981   1.000000
    6        1.105292   1.000000
    7        1.147224   1.000000
    8        2.309574   1.000000
    9        2.887386   1.000000
   10        3.343679   1.000000
   11        4.418669   1.000000
   12        5.767747   0.439646
   13        6.141825   0.000000
   14        9.807431   0.000000
   15       13.070564   0.000000
   16       13.986648   0.000000
 
  0.2631316E+00  0.2631316E+00  0.0000000E+00  0.5555556E-02
    1       -8.020249   1.000000
    2       -7.606632   1.000000
    3       -0.707495   1.000000
    4        0.101214   1.000000
    5        0.104697   1.000000
    6        1.013356   1.000000
    7        1.135914   1.000000
    8        2.397827   1.000000
    9        2.830222   1.000000
   10        3.189669   1.000000
   11        4.571010   1.000000
   12        5.807785   0.236349
   13        6.357262   0.000000
   14        9.894732   0.000000
   15       13.001646   0.000000
   16       13.778514   0.000000
 
  0.2455895E+00  0.2455895E+00  0.0000000E+00  0.5555556E-02
    1       -8.136674   1.000000
    2       -7.567380   1.000000
    3       -0.596102   1.000000
    4        0.128617   1.000000
    5        0.143152   1.000000
    6        0.906744   1.000000
    7        1.125385   1.000000
    8        2.451396   1.000000
    9        2.811377   1.000000
   10        3.115426   1.000000
   11        4.714137   1.000000
   12        5.862013   0.068773
   13        6.573373   0.000000
   14       10.003343   0.000000
   15       12.963369   0.000000
   16       13.552667   0.000000
 
  0.2280474E+00  0.2280474E+00  0.0000000E+00  0.5555556E-02
    1       -8.266384   1.000000
    2       -7.526587   1.000000
    3       -0.449493   1.000000
    4        0.120897   1.000000
    5        0.170241   1.000000
    6        0.796830   1.000000
    7        1.119964   1.000000
    8        2.447292   1.000000
    9        2.842930   1.000000
   10        3.142945   1.000000
   11        4.845053   1.000000
   12        5.932106   0.006639
   13        6.772500   0.000000
   14       10.131749   0.000000
   15       12.962225   0.000000
   16       13.305003   0.000000
 
  0.2105053E+00  0.2105053E+00  0.0000000E+00  0.5555556E-02
    1       -8.405166   1.000000
    2       -7.484667   1.000000
    3       -0.280223   1.000000
    4        0.076762   1.000000
    5        0.174134   1.000000
    6        0.699647   1.000000
    7        1.128275   1.000000
    8        2.412558   1.000000
    9        2.928358   1.000000
   10        3.241478   1.000000
   11        4.961529   1.000000
   12        6.020038   0.000100
   13        6.940218   0.000000
   14       10.277965   0.000000
   15       13.002876   0.000000
   16       13.038105   0.000000
 
  0.1929632E+00  0.1929632E+00  0.0000000E+00  0.5555556E-02
    1       -8.548688   1.000000
    2       -7.442094   1.000000
    3       -0.115885   1.000000
    4       -0.003137   1.000000
    5        0.151286   1.000000
    6        0.643397   1.000000
    7        1.158106   1.000000
    8        2.383120   1.000000
    9        3.064501   1.000000
   10        3.368129   1.000000
   11        5.062454   1.000000
   12        6.126813   0.000000
   13        7.065652   0.000000
   14       10.439042   0.000000
   15       12.758689   0.000000
   16       13.087060   0.000000
 
  0.1754211E+00  0.1754211E+00  0.0000000E+00  0.5555556E-02
    1       -8.692804   1.000000
    2       -7.399499   1.000000
    3       -0.118106   1.000000
    4       -0.002266   1.000000
    5        0.104516   1.000000
    6        0.675363   1.000000
    7        1.211143   1.000000
    8        2.374307   1.000000
    9        3.243915   1.000000
   10        3.498696   1.000000
   11        5.147986   1.000000
   12        6.251275   0.000000
   13        7.142507   0.000000
   14       10.610168   0.000000
   15       12.470238   0.000000
   16       13.195013   0.000000
 
  0.1578789E+00  0.1578789E+00  0.0000000E+00  0.5555556E-02
    1       -8.833685   1.000000
    2       -7.357590   1.000000
    3       -0.249618   1.000000
    4        0.017862   1.000000
    5        0.041968   1.000000