       N       E                     dE             d eps       ncg     rms          rms(c)
DAV:   1    -0.103414968434E+02   -0.10341E+02   -0.51175E+02  8224   0.179E+02
DAV:   2    -0.140668614002E+02   -0.37254E+01   -0.36911E+01  7208   0.324E+01
DAV:   3    -0.141109752314E+02   -0.44114E-01   -0.44090E-01  6376   0.394E+00
DAV:   4    -0.141128495284E+02   -0.18743E-02   -0.18742E-02  6848   0.794E-01
DAV:   5    -0.141128608118E+02   -0.11283E-04   -0.11278E-04  4800   0.763E-02
   1 F= -.14112861E+02 E0= -.14108413E+02  d E =-.889513E-02
