 vasp.5.4.4.18Apr17-6-g9f103f2a35 (build Aug 06 2018 16:10:39) complex          
  
 executed on             LinuxIFC date 2018.11.05  16:11:05
 running on   24 total cores
 distrk:  each k-point on   24 cores,    1 groups
 distr:  one band on NCORES_PER_BAND=   6 cores,    4 groups


--------------------------------------------------------------------------------------------------------


 INCAR:
 POTCAR:    PAW_PBE Pt_GW 10Mar2009               
 POTCAR:    PAW_PBE Se_GW 20Mar2012               
 POTCAR:    PAW_PBE Pt_GW 10Mar2009               
   VRHFIN =Pt: s1d9                                                             
   LEXCH  = PE                                                                  
   EATOM  =   729.1175 eV,   53.5886 Ry                                         
                                                                                
   TITEL  = PAW_PBE Pt_GW 10Mar2009                                             
   LULTRA =        F    use ultrasoft PP ?                                      
   IUNSCR =        1    unscreen: 0-lin 1-nonlin 2-no                           
   RPACOR =    2.000    partial core radius                                     
   POMASS =  195.080; ZVAL   =   10.000    mass and valenz                      
   RCORE  =    2.600    outmost cutoff radius                                   
   RWIGS  =    2.750; RWIGS  =    1.455    wigner-seitz radius (au A)           
   ENMAX  =  248.716; ENMIN  =  186.537 eV                                      
   RCLOC  =    1.603    cutoff for local pot                                    
   LCOR   =        T    correct aug charges                                     
   LPAW   =        T    paw PP                                                  
   EAUG   =  601.084                                                            
   DEXC   =    0.000                                                            
   RMAX   =    2.658    core radius for proj-oper                               
   RAUG   =    1.300    factor for augmentation sphere                          
   RDEP   =    2.761    radius for radial grids                                 
   RDEPT  =    2.134    core radius for aug-charge                              
                                                                                
   Atomic configuration                                                         
   16 entries                                                                   
     n  l   j            E        occ.                                          
     1  0  0.50    -78401.1892   2.0000                                         
     2  0  0.50    -13770.7756   2.0000                                         
     2  1  1.50    -11931.0474   6.0000                                         
     3  0  0.50     -3234.7237   2.0000                                         
     3  1  1.50     -2699.2219   6.0000                                         
     3  2  2.50     -2119.5718  10.0000                                         
     4  0  0.50      -695.1529   2.0000                                         
     4  1  1.50      -519.6035   6.0000                                         
     4  2  2.50      -306.6787  10.0000                                         
     4  3  3.50       -70.1042  14.0000                                         
     5  0  0.50      -101.7747   2.0000                                         
     5  1  1.50       -55.9873   6.0000                                         
     5  2  2.50        -6.1423   9.0000                                         
     6  0  0.50        -5.6573   1.0000                                         
     6  1  1.50        -6.8029   0.0000                                         
     5  3  2.50        -1.3606   0.0000                                         
   Description                                                                  
     l       E           TYP  RCUT    TYP  RCUT                                 
     2     -6.1423315     23  2.400                                             
     2     -7.5029141     23  2.400                                             
     0     -5.6573143     23  2.400                                             
     0     40.8174780     23  2.400                                             
     1     -1.3605826     23  2.600                                             
     1     54.4233040     23  2.000                                             
     3      6.8029130     23  2.500                                             
  local pseudopotential read in
  partial core-charges read in
  partial kinetic energy density read in
  kinetic energy density of atom read in
  atomic valenz-charges read in
  non local Contribution for L=           2  read in
    real space projection operators read in
  non local Contribution for L=           2  read in
    real space projection operators read in
  non local Contribution for L=           0  read in
    real space projection operators read in
  non local Contribution for L=           0  read in
    real space projection operators read in
  non local Contribution for L=           1  read in
    real space projection operators read in
  non local Contribution for L=           1  read in
    real space projection operators read in
  non local Contribution for L=           3  read in
    real space projection operators read in
    PAW grid and wavefunctions read in
 
   number of l-projection  operators is LMAX  =           7
   number of lm-projection operators is LMMAX =          25
 
 POTCAR:    PAW_PBE Se_GW 20Mar2012               
   VRHFIN =Se: s2p4                                                             
   LEXCH  = PE                                                                  
   EATOM  =   257.1286 eV,   18.8984 Ry                                         
                                                                                
   TITEL  = PAW_PBE Se_GW 20Mar2012                                             
   LULTRA =        F    use ultrasoft PP ?                                      
   IUNSCR =        1    unscreen: 0-lin 1-nonlin 2-no                           
   RPACOR =    1.900    partial core radius                                     
   POMASS =   78.960; ZVAL   =    6.000    mass and valenz                      
   RCORE  =    2.100    outmost cutoff radius                                   
   RWIGS  =    2.200; RWIGS  =    1.164    wigner-seitz radius (au A)           
   ENMAX  =  211.555; ENMIN  =  158.666 eV                                      
   ICORE  =        3    local potential                                         
   LCOR   =        T    correct aug charges                                     
   LPAW   =        T    paw PP                                                  
   EAUG   =  446.842                                                            
   DEXC   =    0.000                                                            
   RMAX   =    2.147    core radius for proj-oper                               
   RAUG   =    1.300    factor for augmentation sphere                          
   RDEP   =    2.177    radius for radial grids                                 
   RDEPT  =    1.928    core radius for aug-charge                              
                                                                                
   Atomic configuration                                                         
   10 entries                                                                   
     n  l   j            E        occ.                                          
     1  0  0.50    -12503.4788   2.0000                                         
     2  0  0.50     -1606.9547   2.0000                                         
     2  1  1.50     -1413.3140   6.0000                                         
     3  0  0.50      -213.4885   2.0000                                         
     3  1  1.50      -152.9538   6.0000                                         
     3  2  2.50       -53.1221  10.0000                                         
     4  0  0.50       -17.2865   2.0000                                         
     4  1  0.50        -6.5110   4.0000                                         
     4  2  2.50        -6.8029   0.0000                                         
     4  3  2.50        -6.8029   0.0000                                         
   Description                                                                  
     l       E           TYP  RCUT    TYP  RCUT                                 
     0    -17.2865391     23  2.100                                             
     0     68.0291300     23  2.100                                             
     1     -6.5110285     23  2.100                                             
     1     81.6349560     23  2.100                                             
     2     -6.8029130     23  2.100                                             
     3     -1.3605826      7  2.100                                             
  local pseudopotential read in
  partial core-charges read in
  partial kinetic energy density read in
  kinetic energy density of atom read in
  atomic valenz-charges read in
  non local Contribution for L=           0  read in
    real space projection operators read in
  non local Contribution for L=           0  read in
    real space projection operators read in
  non local Contribution for L=           1  read in
    real space projection operators read in
  non local Contribution for L=           1  read in
    real space projection operators read in
  non local Contribution for L=           2  read in
    real space projection operators read in
    PAW grid and wavefunctions read in
 
   number of l-projection  operators is LMAX  =           5
   number of lm-projection operators is LMMAX =          13
 

 ----------------------------------------------------------------------------- 
|                                                                             |
|  ADVICE TO THIS USER RUNNING 'VASP/VAMP'   (HEAR YOUR MASTER'S VOICE ...):  |
|                                                                             |
|      You have a (more or less) 'small supercell' and for smaller cells      |
|      it is recommended  to use the reciprocal-space projection scheme!      |
|      The real space optimization is not  efficient for small cells and it   |
|      is also less accurate ...                                              |
|      Therefore set LREAL=.FALSE. in the  INCAR file                         |
|                                                                             |
 ----------------------------------------------------------------------------- 

 Optimization of the real space projectors (new method)

 maximal supplied QI-value         = 14.36
 optimisation between [QCUT,QGAM] = [  9.48, 19.10] = [ 25.16,102.17] Ry 
 Optimized for a Real-space Cutoff    1.71 Angstroem

   l    n(q)    QCUT    max X(q) W(low)/X(q) W(high)/X(q)  e(spline) 
   2      9     9.479   126.614    0.21E-03    0.17E-03    0.49E-06
   2      9     9.479   125.648    0.21E-03    0.17E-03    0.50E-06
   0     10     9.479    16.328    0.64E-04    0.43E-04    0.15E-06
   0     10     9.479     9.586    0.45E-04    0.36E-04    0.14E-06
   1      9     9.479    32.965    0.27E-04    0.45E-04    0.15E-06
   1      9     9.479    25.295    0.24E-04    0.38E-04    0.13E-06
   3      8     9.479     9.070    0.24E-03    0.53E-04    0.54E-06
 Optimization of the real space projectors (new method)

 maximal supplied QI-value         = 17.95
 optimisation between [QCUT,QGAM] = [  9.51, 19.03] = [ 25.35,101.40] Ry 
 Optimized for a Real-space Cutoff    1.31 Angstroem

   l    n(q)    QCUT    max X(q) W(low)/X(q) W(high)/X(q)  e(spline) 
   0      7     9.515     8.579    0.40E-04    0.81E-04    0.21E-07
   0      7     9.515     1.981    0.74E-04    0.22E-03    0.49E-07
   1      7     9.515     4.789    0.24E-03    0.32E-03    0.85E-07
   1      7     9.515     2.182    0.39E-03    0.61E-03    0.12E-06
   2      6     9.515     3.720    0.27E-03    0.22E-03    0.44E-07
  PAW_PBE Pt_GW 10Mar2009               :
 energy of atom  1       EATOM= -729.1175
 kinetic energy error for atom=    0.0294 (will be added to EATOM!!)
  PAW_PBE Se_GW 20Mar2012               :
 energy of atom  2       EATOM= -257.1286
 kinetic energy error for atom=    0.0032 (will be added to EATOM!!)
 
 
 POSCAR: Pt1Se2                                  
  positions in direct lattice
  No initial velocities read in
 exchange correlation table for  LEXCH =        8
   RHO(1)=    0.500       N(1)  =     2000
   RHO(2)=  100.500       N(2)  =     4000
 


--------------------------------------------------------------------------------------------------------


 ion  position               nearest neighbor table
   1  0.000  0.000  0.000-   2 2.54   3 2.54   3 2.54   2 2.54   3 2.54   2 2.54
   2  0.333  0.667  0.247-   1 2.54   1 2.54   1 2.54
   3  0.667  0.333  0.753-   1 2.54   1 2.54   1 2.54
 
  LATTYP: Found a hexagonal cell.
 ALAT       =     3.7714982214
 C/A-ratio  =     1.3952210156
  
  Lattice vectors:
  
 A1 = (   1.8858181117,  -3.2661734308,  -0.0000570443)
 A2 = (   1.8858181117,   3.2661734308,   0.0000570443)
 A3 = (   0.0000000000,   0.0000538431,   5.2620735785)


Analysis of symmetry for initial positions (statically):
=====================================================================
 Subroutine PRICEL returns:
 Original cell was already a primitive cell.
 

 Routine SETGRP: Setting up the symmetry group for a 
 hexagonal supercell.


 Subroutine GETGRP returns: Found 12 space group operations
 (whereof 12 operations were pure point group operations)
 out of a pool of 24 trial point group operations.


The static configuration has the point symmetry D_3d.


Analysis of symmetry for dynamics (positions and initial velocities):
=====================================================================
 Subroutine PRICEL returns:
 Original cell was already a primitive cell.
 

 Routine SETGRP: Setting up the symmetry group for a 
 hexagonal supercell.


 Subroutine GETGRP returns: Found 12 space group operations
 (whereof 12 operations were pure point group operations)
 out of a pool of 24 trial point group operations.


The dynamic configuration has the point symmetry D_3d.


 Subroutine INISYM returns: Found 12 space group operations
 (whereof 12 operations are pure point group operations),
 and found     1 'primitive' translations

 
 
 KPOINTS: HEX (hexagonal) G-M-K-G-A-L-H-A L-M K-H 
  interpolating k-points between supplied coordinates
  k-points in reciprocal lattice
Space group operators:
 irot       det(A)        alpha          n_x          n_y          n_z        tau_x        tau_y        tau_z
    1     1.000000     0.000000     1.000000     0.000000     0.000000     0.000000     0.000000     0.000000
    2    -1.000000     0.000000     1.000000     0.000000     0.000000     0.000000     0.000000     0.000000
    3     1.000000   120.000000     0.000024     0.000004    -1.000000     0.000000     0.000000     0.000000
    4    -1.000000   120.000000     0.000024     0.000004    -1.000000     0.000000     0.000000     0.000000
    5     1.000000   120.000000     0.000024    -0.000004     1.000000     0.000000     0.000000     0.000000
    6    -1.000000   120.000000     0.000024    -0.000004     1.000000     0.000000     0.000000     0.000000
    7     1.000000   180.000000    -0.499982     0.866036    -0.000009     0.000000     0.000000     0.000000
    8    -1.000000   180.000000    -0.499982     0.866036    -0.000009     0.000000     0.000000     0.000000
    9     1.000000   180.000000     0.499982     0.866036    -0.000009     0.000000     0.000000     0.000000
   10    -1.000000   180.000000     0.499982     0.866036    -0.000009     0.000000     0.000000     0.000000
   11     1.000000   179.999999     1.000000     0.000000     0.000000     0.000000     0.000000     0.000000
   12    -1.000000   179.999999     1.000000     0.000000     0.000000     0.000000     0.000000     0.000000


--------------------------------------------------------------------------------------------------------




 Dimension of arrays:
   k-points           NKPTS =    180   k-points in BZ     NKDIM =    180   number of bands    NBANDS=     16
   number of dos      NEDOS =    301   number of ions     NIONS =      3
   non local maximal  LDIM  =      7   non local SUM 2l+1 LMDIM =     25
   total plane-waves  NPLWV =   7776
   max r-space proj   IRMAX =   2566   max aug-charges    IRDMAX=   6195
   dimension x,y,z NGX =    18 NGY =   18 NGZ =   24
   dimension x,y,z NGXF=    36 NGYF=   36 NGZF=   48
   support grid    NGXF=    36 NGYF=   36 NGZF=   48
   ions per type =               1   2
   NGX,Y,Z   is equivalent  to a cutoff of   7.93,  7.93,  7.58 a.u.
   NGXF,Y,Z  is equivalent  to a cutoff of  15.87, 15.87, 15.16 a.u.

 SYSTEM =  unknown system                          
 POSCAR =  Pt1Se2                                  

 Startparameter for this run:
   NWRITE =      2    write-flag & timer
   PREC   = normal    normal or accurate (medium, high low for compatibility)
   ISTART =      1    job   : 0-new  1-cont  2-samecut
   ICHARG =     11    charge: 1-file 2-atom 10-const
   ISPIN  =      1    spin polarized calculation?
   LNONCOLLINEAR =      F non collinear calculations
   LSORBIT =      F    spin-orbit coupling
   INIWAV =      1    electr: 0-lowe 1-rand  2-diag
   LASPH  =      F    aspherical Exc in radial PAW
   METAGGA=      F    non-selfconsistent MetaGGA calc.

 Electronic Relaxation 1
   ENCUT  =  350.0 eV  25.72 Ry    5.07 a.u.   5.75  5.75  8.03*2*pi/ulx,y,z
   ENINI  =  350.0     initial cutoff
   ENAUG  =  601.1 eV  augmentation charge cutoff
   NELM   =     60;   NELMIN=  2; NELMDL=  0     # of ELM steps 
   EDIFF  = 0.1E-02   stopping-criterion for ELM
   LREAL  =      T    real-space projection
   NLSPLINE    = F    spline interpolate recip. space projectors
   LCOMPAT=      F    compatible to vasp.4.4
   GGA_COMPAT  = T    GGA compatible to vasp.4.4-vasp.4.6
   LMAXPAW     = -100 max onsite density
   LMAXMIX     =    2 max onsite mixed and CHGCAR
   VOSKOWN=      0    Vosko Wilk Nusair interpolation
   ROPT   =   -0.00050  -0.00050
 Ionic relaxation
   EDIFFG = 0.1E-01   stopping-criterion for IOM
   NSW    =      0    number of steps for IOM
   NBLOCK =      1;   KBLOCK =      1    inner block; outer block 
   IBRION =     -1    ionic relax: 0-MD 1-quasi-New 2-CG
   NFREE  =      0    steps in history (QN), initial steepest desc. (CG)
   ISIF   =      2    stress and relaxation
   IWAVPR =     10    prediction:  0-non 1-charg 2-wave 3-comb
   ISYM   =      2    0-nonsym 1-usesym 2-fastsym
   LCORR  =      T    Harris-Foulkes like correction to forces

   POTIM  = 0.5000    time-step for ionic-motion
   TEIN   =    0.0    initial temperature
   TEBEG  =    0.0;   TEEND  =   0.0 temperature during run
   SMASS  =  -3.00    Nose mass-parameter (am)
   estimated Nose-frequenzy (Omega)   =  0.10E-29 period in steps =****** mass=  -0.325E-27a.u.
   SCALEE = 1.0000    scale energy and forces
   NPACO  =    256;   APACO  = 16.0  distance and # of slots for P.C.
   PSTRESS=    0.0 pullay stress

  Mass of Ions in am
   POMASS = 195.08 78.96
  Ionic Valenz
   ZVAL   =  10.00  6.00
  Atomic Wigner-Seitz radii
   RWIGS  =  -1.00 -1.00
  virtual crystal weights 
   VCA    =   1.00  1.00
   NELECT =      22.0000    total number of electrons
   NUPDOWN=      -1.0000    fix difference up-down

 DOS related values:
   EMIN   =  10.00;   EMAX   =-10.00  energy-range for DOS
   EFERMI =   0.00
   ISMEAR =     0;   SIGMA  =   0.10  broadening in eV -4-tet -1-fermi 0-gaus

 Electronic relaxation 2 (details)
   IALGO  =     38    algorithm
   LDIAG  =      T    sub-space diagonalisation (order eigenvalues)
   LSUBROT=      F    optimize rotation matrix (better conditioning)
   TURBO    =      0    0=normal 1=particle mesh
   IRESTART =      0    0=no restart 2=restart with 2 vectors
   NREBOOT  =      0    no. of reboots
   NMIN     =      0    reboot dimension
   EREF     =   0.00    reference energy to select bands
   IMIX   =      4    mixing-type and parameters
     AMIX     =   0.40;   BMIX     =  1.00
     AMIX_MAG =   1.60;   BMIX_MAG =  1.00
     AMIN     =   0.10
     WC   =   100.;   INIMIX=   1;  MIXPRE=   1;  MAXMIX= -45

 Intra band minimization:
   WEIMIN = 0.0000     energy-eigenvalue tresh-hold
   EBREAK =  0.16E-04  absolut break condition
   DEPER  =   0.30     relativ break condition  

   TIME   =   0.40     timestep for ELM

  volume/ion in A,a.u.               =      21.61       145.81
  Fermi-wavevector in a.u.,A,eV,Ry     =   1.141932  2.157939 17.742129  1.304010
  Thomas-Fermi vector in A             =   2.278632
 
 Write flags
   LWAVE        =      T    write WAVECAR
   LDOWNSAMPLE  =      F    k-point downsampling of WAVECAR
   LCHARG       =      T    write CHGCAR
   LVTOT        =      F    write LOCPOT, total local potential
   LVHAR        =      F    write LOCPOT, Hartree potential only
   LELF         =      F    write electronic localiz. function (ELF)
   LORBIT       =     11    0 simple, 1 ext, 2 COOP (PROOUT), +10 PAW based schemes


 Dipole corrections
   LMONO  =      F    monopole corrections only (constant potential shift)
   LDIPOL =      F    correct potential (dipole corrections)
   IDIPOL =      0    1-x, 2-y, 3-z, 4-all directions 
   EPSILON=  1.0000000 bulk dielectric constant

 Exchange correlation treatment:
   GGA     =    --    GGA type
   LEXCH   =     8    internal setting for exchange type
   VOSKOWN=      0    Vosko Wilk Nusair interpolation
   LHFCALC =     F    Hartree Fock is set to
   LHFONE  =     F    Hartree Fock one center treatment
   AEXX    =    0.0000 exact exchange contribution

 Linear response parameters
   LEPSILON=     F    determine dielectric tensor
   LRPA    =     F    only Hartree local field effects (RPA)
   LNABLA  =     F    use nabla operator in PAW spheres
   LVEL    =     F    velocity operator in full k-point grid
   LINTERFAST=   F  fast interpolation
   KINTER  =     0    interpolate to denser k-point grid
   CSHIFT  =0.1000    complex shift for real part using Kramers Kronig
   OMEGAMAX=  -1.0    maximum frequency
   DEG_THRESHOLD= 0.2000000E-02 threshold for treating states as degnerate
   RTIME   =   -0.100 relaxation time in fs
  (WPLASMAI=    0.000 imaginary part of plasma frequency in eV, 0.658/RTIME)
   DFIELD  = 0.0000000 0.0000000 0.0000000 field for delta impulse in time
 
 Orbital magnetization related:
   ORBITALMAG=     F  switch on orbital magnetization
   LCHIMAG   =     F  perturbation theory with respect to B field
   DQ        =  0.001000  dq finite difference perturbation B field
   LLRAUG    =     F  two centre corrections for induced B field



--------------------------------------------------------------------------------------------------------


 Static calculation
 charge density and potential remain constant during run
 non-spin polarized calculation
 Variant of blocked Davidson
 Davidson routine will perform the subspace rotation
 perform sub-space diagonalisation
    after iterative eigenvector-optimisation
 no mixing
 using additional bands            5
 real space projection scheme for non local part
 use partial core corrections
 calculate Harris-corrections to forces 
   (improved forces if not selfconsistent)
 use gradient corrections 
 WARNING: stress and forces are not correct
  (second derivative of E(xc) not defined)
 use of overlap-Matrix (Vanderbilt PP)
 Gauss-broadening in eV      SIGMA  =   0.10


--------------------------------------------------------------------------------------------------------


  energy-cutoff  :      350.00
  volume of cell :       64.82
      direct lattice vectors                 reciprocal lattice vectors
     1.885818112 -3.266173431 -0.000057044     0.265136917 -0.153084339  0.000001566
     1.885818112  3.266173431  0.000057044     0.265136917  0.153084339 -0.000001566
     0.000000000  0.000053843  5.262073579     0.000000000 -0.000003319  0.190039152

  length of vectors
     3.771498221  3.771498221  5.262073579     0.306157475  0.306157475  0.190039152


 
 old parameters found on file WAVECAR:
  energy-cutoff  :      350.00
  volume of cell :       64.82
      direct lattice vectors                 reciprocal lattice vectors
     1.885818112 -3.266173431 -0.000057044     0.265136917 -0.153084339  0.000001566
     1.885818112  3.266173431  0.000057044     0.265136917  0.153084339 -0.000001566
     0.000000000  0.000053843  5.262073579     0.000000000 -0.000003319  0.190039152

  length of vectors

 
 k-points in units of 2pi/SCALE and weight: HEX (hexagonal) G-M-K-G-A-L-H-A L-M K-H 
   0.00000000  0.00000000  0.00000000       0.006
   0.00697729 -0.00402854  0.00000004       0.006
   0.01395457 -0.00805707  0.00000008       0.006
   0.02093186 -0.01208561  0.00000012       0.006
   0.02790915 -0.01611414  0.00000016       0.006
   0.03488644 -0.02014268  0.00000021       0.006
   0.04186372 -0.02417121  0.00000025       0.006
   0.04884101 -0.02819975  0.00000029       0.006
   0.05581830 -0.03222828  0.00000033       0.006
   0.06279559 -0.03625682  0.00000037       0.006
   0.06977287 -0.04028535  0.00000041       0.006
   0.07675016 -0.04431389  0.00000045       0.006
   0.08372745 -0.04834242  0.00000049       0.006
   0.09070473 -0.05237096  0.00000054       0.006
   0.09768202 -0.05639949  0.00000058       0.006
   0.10465931 -0.06042803  0.00000062       0.006
   0.11163660 -0.06445656  0.00000066       0.006
   0.11861388 -0.06848510  0.00000070       0.006
   0.12559117 -0.07251363  0.00000074       0.006
   0.13256846 -0.07654217  0.00000078       0.006
   0.13256846 -0.07654217  0.00000078       0.006
   0.13489329 -0.07251363  0.00000074       0.006
   0.13721812 -0.06848510  0.00000070       0.006
   0.13954295 -0.06445656  0.00000066       0.006
   0.14186779 -0.06042803  0.00000062       0.006
   0.14419262 -0.05639949  0.00000058       0.006
   0.14651745 -0.05237096  0.00000054       0.006
   0.14884228 -0.04834242  0.00000049       0.006
   0.15116712 -0.04431389  0.00000045       0.006
   0.15349195 -0.04028535  0.00000041       0.006
   0.15581678 -0.03625682  0.00000037       0.006
   0.15814161 -0.03222828  0.00000033       0.006
   0.16046644 -0.02819975  0.00000029       0.006
   0.16279128 -0.02417121  0.00000025       0.006
   0.16511611 -0.02014268  0.00000021       0.006
   0.16744094 -0.01611414  0.00000016       0.006
   0.16976577 -0.01208561  0.00000012       0.006
   0.17209060 -0.00805707  0.00000008       0.006
   0.17441544 -0.00402854  0.00000004       0.006
   0.17674027  0.00000000  0.00000000       0.006
   0.17674027  0.00000000  0.00000000       0.006
   0.16743815  0.00000000  0.00000000       0.006
   0.15813603  0.00000000  0.00000000       0.006
   0.14883391  0.00000000  0.00000000       0.006
   0.13953179  0.00000000  0.00000000       0.006
   0.13022967  0.00000000  0.00000000       0.006
   0.12092755  0.00000000  0.00000000       0.006
   0.11162543  0.00000000  0.00000000       0.006
   0.10232331  0.00000000  0.00000000       0.006
   0.09302119  0.00000000  0.00000000       0.006
   0.08371907  0.00000000  0.00000000       0.006
   0.07441696  0.00000000  0.00000000       0.006
   0.06511484  0.00000000  0.00000000       0.006
   0.05581272  0.00000000  0.00000000       0.006
   0.04651060  0.00000000  0.00000000       0.006
   0.03720848  0.00000000  0.00000000       0.006
   0.02790636  0.00000000  0.00000000       0.006
   0.01860424  0.00000000  0.00000000       0.006
   0.00930212  0.00000000  0.00000000       0.006
   0.00000000  0.00000000  0.00000000       0.006
   0.00000000  0.00000000  0.00000000       0.006
   0.00000000 -0.00000009  0.00500103       0.006
   0.00000000 -0.00000017  0.01000206       0.006
   0.00000000 -0.00000026  0.01500309       0.006
   0.00000000 -0.00000035  0.02000412       0.006
   0.00000000 -0.00000044  0.02500515       0.006
   0.00000000 -0.00000052  0.03000618       0.006
   0.00000000 -0.00000061  0.03500721       0.006
   0.00000000 -0.00000070  0.04000824       0.006
   0.00000000 -0.00000079  0.04500927       0.006
   0.00000000 -0.00000087  0.05001030       0.006
   0.00000000 -0.00000096  0.05501133       0.006
   0.00000000 -0.00000105  0.06001236       0.006
   0.00000000 -0.00000114  0.06501339       0.006
   0.00000000 -0.00000122  0.07001442       0.006
   0.00000000 -0.00000131  0.07501545       0.006
   0.00000000 -0.00000140  0.08001649       0.006
   0.00000000 -0.00000148  0.08501752       0.006
   0.00000000 -0.00000157  0.09001855       0.006
   0.00000000 -0.00000166  0.09501958       0.006
   0.00000000 -0.00000166  0.09501958       0.006
   0.00697729 -0.00403019  0.09501962       0.006
   0.01395457 -0.00805873  0.09501966       0.006
   0.02093186 -0.01208727  0.09501970       0.006
   0.02790915 -0.01611580  0.09501974       0.006
   0.03488644 -0.02014434  0.09501978       0.006
   0.04186372 -0.02417287  0.09501982       0.006
   0.04884101 -0.02820141  0.09501986       0.006
   0.05581830 -0.03222994  0.09501991       0.006
   0.06279559 -0.03625848  0.09501995       0.006
   0.06977287 -0.04028701  0.09501999       0.006
   0.07675016 -0.04431555  0.09502003       0.006
   0.08372745 -0.04834408  0.09502007       0.006
   0.09070473 -0.05237262  0.09502011       0.006
   0.09768202 -0.05640115  0.09502015       0.006
   0.10465931 -0.06042969  0.09502019       0.006
   0.11163660 -0.06445822  0.09502024       0.006
   0.11861388 -0.06848676  0.09502028       0.006
   0.12559117 -0.07251529  0.09502032       0.006
   0.13256846 -0.07654383  0.09502036       0.006
   0.13256846 -0.07654383  0.09502036       0.006
   0.13489329 -0.07251529  0.09502032       0.006
   0.13721812 -0.06848676  0.09502028       0.006
   0.13954295 -0.06445822  0.09502024       0.006
   0.14186779 -0.06042969  0.09502019       0.006
   0.14419262 -0.05640115  0.09502015       0.006
   0.14651745 -0.05237262  0.09502011       0.006
   0.14884228 -0.04834408  0.09502007       0.006
   0.15116712 -0.04431555  0.09502003       0.006
   0.15349195 -0.04028701  0.09501999       0.006
   0.15581678 -0.03625848  0.09501995       0.006
   0.15814161 -0.03222994  0.09501991       0.006
   0.16046644 -0.02820141  0.09501986       0.006
   0.16279128 -0.02417287  0.09501982       0.006
   0.16511611 -0.02014434  0.09501978       0.006
   0.16744094 -0.01611580  0.09501974       0.006
   0.16976577 -0.01208727  0.09501970       0.006
   0.17209060 -0.00805873  0.09501966       0.006
   0.17441544 -0.00403019  0.09501962       0.006
   0.17674027 -0.00000166  0.09501958       0.006
   0.17674027 -0.00000166  0.09501958       0.006
   0.16743815 -0.00000166  0.09501958       0.006
   0.15813603 -0.00000166  0.09501958       0.006
   0.14883391 -0.00000166  0.09501958       0.006
   0.13953179 -0.00000166  0.09501958       0.006
   0.13022967 -0.00000166  0.09501958       0.006
   0.12092755 -0.00000166  0.09501958       0.006
   0.11162543 -0.00000166  0.09501958       0.006
   0.10232331 -0.00000166  0.09501958       0.006
   0.09302119 -0.00000166  0.09501958       0.006
   0.08371907 -0.00000166  0.09501958       0.006
   0.07441696 -0.00000166  0.09501958       0.006
   0.06511484 -0.00000166  0.09501958       0.006
   0.05581272 -0.00000166  0.09501958       0.006
   0.04651060 -0.00000166  0.09501958       0.006
   0.03720848 -0.00000166  0.09501958       0.006
   0.02790636 -0.00000166  0.09501958       0.006
   0.01860424 -0.00000166  0.09501958       0.006
   0.00930212 -0.00000166  0.09501958       0.006
   0.00000000 -0.00000166  0.09501958       0.006
   0.13256846 -0.07654383  0.09502036       0.006
   0.13256846 -0.07654374  0.09001933       0.006
   0.13256846 -0.07654365  0.08501830       0.006
   0.13256846 -0.07654357  0.08001727       0.006
   0.13256846 -0.07654348  0.07501624       0.006
   0.13256846 -0.07654339  0.07001521       0.006
   0.13256846 -0.07654330  0.06501418       0.006
   0.13256846 -0.07654322  0.06001315       0.006
   0.13256846 -0.07654313  0.05501212       0.006
   0.13256846 -0.07654304  0.05001109       0.006
   0.13256846 -0.07654296  0.04501006       0.006
   0.13256846 -0.07654287  0.04000903       0.006
   0.13256846 -0.07654278  0.03500800       0.006
   0.13256846 -0.07654269  0.03000697       0.006
   0.13256846 -0.07654261  0.02500593       0.006
   0.13256846 -0.07654252  0.02000490       0.006
   0.13256846 -0.07654243  0.01500387       0.006
   0.13256846 -0.07654234  0.01000284       0.006
   0.13256846 -0.07654226  0.00500181       0.006
   0.13256846 -0.07654217  0.00000078       0.006
   0.17674027  0.00000000  0.00000000       0.006
   0.17674027 -0.00000009  0.00500103       0.006
   0.17674027 -0.00000017  0.01000206       0.006
   0.17674027 -0.00000026  0.01500309       0.006
   0.17674027 -0.00000035  0.02000412       0.006
   0.17674027 -0.00000044  0.02500515       0.006
   0.17674027 -0.00000052  0.03000618       0.006
   0.17674027 -0.00000061  0.03500721       0.006
   0.17674027 -0.00000070  0.04000824       0.006
   0.17674027 -0.00000079  0.04500927       0.006
   0.17674027 -0.00000087  0.05001030       0.006
   0.17674027 -0.00000096  0.05501133       0.006
   0.17674027 -0.00000105  0.06001236       0.006
   0.17674027 -0.00000114  0.06501339       0.006
   0.17674027 -0.00000122  0.07001442       0.006
   0.17674027 -0.00000131  0.07501545       0.006
   0.17674027 -0.00000140  0.08001649       0.006
   0.17674027 -0.00000148  0.08501752       0.006
   0.17674027 -0.00000157  0.09001855       0.006
   0.17674027 -0.00000166  0.09501958       0.006
 
 k-points in reciprocal lattice and weights: HEX (hexagonal) G-M-K-G-A-L-H-A L-M K-H 
   0.00000000  0.00000000  0.00000000       0.006
   0.02631579  0.00000000  0.00000000       0.006
   0.05263158  0.00000000  0.00000000       0.006
   0.07894737  0.00000000  0.00000000       0.006
   0.10526316  0.00000000  0.00000000       0.006
   0.13157895  0.00000000  0.00000000       0.006
   0.15789474  0.00000000  0.00000000       0.006
   0.18421053  0.00000000  0.00000000       0.006
   0.21052632  0.00000000  0.00000000       0.006
   0.23684211  0.00000000  0.00000000       0.006
   0.26315789  0.00000000  0.00000000       0.006
   0.28947368  0.00000000  0.00000000       0.006
   0.31578947  0.00000000  0.00000000       0.006
   0.34210526  0.00000000  0.00000000       0.006
   0.36842105  0.00000000  0.00000000       0.006
   0.39473684  0.00000000  0.00000000       0.006
   0.42105263  0.00000000  0.00000000       0.006
   0.44736842  0.00000000  0.00000000       0.006
   0.47368421  0.00000000  0.00000000       0.006
   0.50000000  0.00000000  0.00000000       0.006
   0.50000000  0.00000000  0.00000000       0.006
   0.49122632  0.01754211  0.00000000       0.006
   0.48245263  0.03508421  0.00000000       0.006
   0.47367895  0.05262632  0.00000000       0.006
   0.46490526  0.07016842  0.00000000       0.006
   0.45613158  0.08771053  0.00000000       0.006
   0.44735789  0.10525263  0.00000000       0.006
   0.43858421  0.12279474  0.00000000       0.006
   0.42981053  0.14033684  0.00000000       0.006
   0.42103684  0.15787895  0.00000000       0.006
   0.41226316  0.17542105  0.00000000       0.006
   0.40348947  0.19296316  0.00000000       0.006
   0.39471579  0.21050526  0.00000000       0.006
   0.38594211  0.22804737  0.00000000       0.006
   0.37716842  0.24558947  0.00000000       0.006
   0.36839474  0.26313158  0.00000000       0.006
   0.35962105  0.28067368  0.00000000       0.006
   0.35084737  0.29821579  0.00000000       0.006
   0.34207368  0.31575789  0.00000000       0.006
   0.33330000  0.33330000  0.00000000       0.006
   0.33330000  0.33330000  0.00000000       0.006
   0.31575789  0.31575789  0.00000000       0.006
   0.29821579  0.29821579  0.00000000       0.006
   0.28067368  0.28067368  0.00000000       0.006
   0.26313158  0.26313158  0.00000000       0.006
   0.24558947  0.24558947  0.00000000       0.006
   0.22804737  0.22804737  0.00000000       0.006
   0.21050526  0.21050526  0.00000000       0.006
   0.19296316  0.19296316  0.00000000       0.006
   0.17542105  0.17542105  0.00000000       0.006
   0.15787895  0.15787895  0.00000000       0.006
   0.14033684  0.14033684  0.00000000       0.006
   0.12279474  0.12279474  0.00000000       0.006
   0.10525263  0.10525263  0.00000000       0.006
   0.08771053  0.08771053  0.00000000       0.006
   0.07016842  0.07016842  0.00000000       0.006
   0.05262632  0.05262632  0.00000000       0.006
   0.03508421  0.03508421  0.00000000       0.006
   0.01754211  0.01754211  0.00000000       0.006
   0.00000000  0.00000000  0.00000000       0.006
   0.00000000  0.00000000  0.00000000       0.006
   0.00000000  0.00000000  0.02631579       0.006
   0.00000000  0.00000000  0.05263158       0.006
   0.00000000  0.00000000  0.07894737       0.006
   0.00000000  0.00000000  0.10526316       0.006
   0.00000000  0.00000000  0.13157895       0.006
   0.00000000  0.00000000  0.15789474       0.006
   0.00000000  0.00000000  0.18421053       0.006
   0.00000000  0.00000000  0.21052632       0.006
   0.00000000  0.00000000  0.23684211       0.006
   0.00000000  0.00000000  0.26315789       0.006
   0.00000000  0.00000000  0.28947368       0.006
   0.00000000  0.00000000  0.31578947       0.006
   0.00000000  0.00000000  0.34210526       0.006
   0.00000000  0.00000000  0.36842105       0.006
   0.00000000  0.00000000  0.39473684       0.006
   0.00000000  0.00000000  0.42105263       0.006
   0.00000000  0.00000000  0.44736842       0.006
   0.00000000  0.00000000  0.47368421       0.006
   0.00000000  0.00000000  0.50000000       0.006
   0.00000000  0.00000000  0.50000000       0.006
   0.02631579  0.00000000  0.50000000       0.006
   0.05263158  0.00000000  0.50000000       0.006
   0.07894737  0.00000000  0.50000000       0.006
   0.10526316  0.00000000  0.50000000       0.006
   0.13157895  0.00000000  0.50000000       0.006
   0.15789474  0.00000000  0.50000000       0.006
   0.18421053  0.00000000  0.50000000       0.006
   0.21052632  0.00000000  0.50000000       0.006
   0.23684211  0.00000000  0.50000000       0.006
   0.26315789  0.00000000  0.50000000       0.006
   0.28947368  0.00000000  0.50000000       0.006
   0.31578947  0.00000000  0.50000000       0.006
   0.34210526  0.00000000  0.50000000       0.006
   0.36842105  0.00000000  0.50000000       0.006
   0.39473684  0.00000000  0.50000000       0.006
   0.42105263  0.00000000  0.50000000       0.006
   0.44736842  0.00000000  0.50000000       0.006
   0.47368421  0.00000000  0.50000000       0.006
   0.50000000  0.00000000  0.50000000       0.006
   0.50000000  0.00000000  0.50000000       0.006
   0.49122632  0.01754211  0.50000000       0.006
   0.48245263  0.03508421  0.50000000       0.006
   0.47367895  0.05262632  0.50000000       0.006
   0.46490526  0.07016842  0.50000000       0.006
   0.45613158  0.08771053  0.50000000       0.006
   0.44735789  0.10525263  0.50000000       0.006
   0.43858421  0.12279474  0.50000000       0.006
   0.42981053  0.14033684  0.50000000       0.006
   0.42103684  0.15787895  0.50000000       0.006
   0.41226316  0.17542105  0.50000000       0.006
   0.40348947  0.19296316  0.50000000       0.006
   0.39471579  0.21050526  0.50000000       0.006
   0.38594211  0.22804737  0.50000000       0.006
   0.37716842  0.24558947  0.50000000       0.006
   0.36839474  0.26313158  0.50000000       0.006
   0.35962105  0.28067368  0.50000000       0.006
   0.35084737  0.29821579  0.50000000       0.006
   0.34207368  0.31575789  0.50000000       0.006
   0.33330000  0.33330000  0.50000000       0.006
   0.33330000  0.33330000  0.50000000       0.006
   0.31575789  0.31575789  0.50000000       0.006
   0.29821579  0.29821579  0.50000000       0.006
   0.28067368  0.28067368  0.50000000       0.006
   0.26313158  0.26313158  0.50000000       0.006
   0.24558947  0.24558947  0.50000000       0.006
   0.22804737  0.22804737  0.50000000       0.006
   0.21050526  0.21050526  0.50000000       0.006
   0.19296316  0.19296316  0.50000000       0.006
   0.17542105  0.17542105  0.50000000       0.006
   0.15787895  0.15787895  0.50000000       0.006
   0.14033684  0.14033684  0.50000000       0.006
   0.12279474  0.12279474  0.50000000       0.006
   0.10525263  0.10525263  0.50000000       0.006
   0.08771053  0.08771053  0.50000000       0.006
   0.07016842  0.07016842  0.50000000       0.006
   0.05262632  0.05262632  0.50000000       0.006
   0.03508421  0.03508421  0.50000000       0.006
   0.01754211  0.01754211  0.50000000       0.006
   0.00000000  0.00000000  0.50000000       0.006
   0.50000000  0.00000000  0.50000000       0.006
   0.50000000  0.00000000  0.47368421       0.006
   0.50000000  0.00000000  0.44736842       0.006
   0.50000000  0.00000000  0.42105263       0.006
   0.50000000  0.00000000  0.39473684       0.006
   0.50000000  0.00000000  0.36842105       0.006
   0.50000000  0.00000000  0.34210526       0.006
   0.50000000  0.00000000  0.31578947       0.006
   0.50000000  0.00000000  0.28947368       0.006
   0.50000000  0.00000000  0.26315789       0.006
   0.50000000  0.00000000  0.23684211       0.006
   0.50000000  0.00000000  0.21052632       0.006
   0.50000000  0.00000000  0.18421053       0.006
   0.50000000  0.00000000  0.15789474       0.006
   0.50000000  0.00000000  0.13157895       0.006
   0.50000000  0.00000000  0.10526316       0.006
   0.50000000  0.00000000  0.07894737       0.006
   0.50000000  0.00000000  0.05263158       0.006
   0.50000000  0.00000000  0.02631579       0.006
   0.50000000  0.00000000  0.00000000       0.006
   0.33330000  0.33330000  0.00000000       0.006
   0.33330000  0.33330000  0.02631579       0.006
   0.33330000  0.33330000  0.05263158       0.006
   0.33330000  0.33330000  0.07894737       0.006
   0.33330000  0.33330000  0.10526316       0.006
   0.33330000  0.33330000  0.13157895       0.006
   0.33330000  0.33330000  0.15789474       0.006
   0.33330000  0.33330000  0.18421053       0.006
   0.33330000  0.33330000  0.21052632       0.006
   0.33330000  0.33330000  0.23684211       0.006
   0.33330000  0.33330000  0.26315789       0.006
   0.33330000  0.33330000  0.28947368       0.006
   0.33330000  0.33330000  0.31578947       0.006
   0.33330000  0.33330000  0.34210526       0.006
   0.33330000  0.33330000  0.36842105       0.006
   0.33330000  0.33330000  0.39473684       0.006
   0.33330000  0.33330000  0.42105263       0.006
   0.33330000  0.33330000  0.44736842       0.006
   0.33330000  0.33330000  0.47368421       0.006
   0.33330000  0.33330000  0.50000000       0.006
 
 position of ions in fractional coordinates (direct lattice) 
   0.00000000  0.00000000  0.00000000
   0.33333228  0.66666772  0.24697395
   0.66666772  0.33333228  0.75302605
 
 position of ions in cartesian coordinates  (Angst):
   0.00000000  0.00000000  0.00000000
   1.88581811  1.08874465  1.29961412
   1.88581811 -1.08869080  3.96245946
 


--------------------------------------------------------------------------------------------------------


 k-point  1 :   0.0000 0.0000 0.0000  plane waves:     941
 k-point  2 :   0.0263 0.0000 0.0000  plane waves:     942
 k-point  3 :   0.0526 0.0000 0.0000  plane waves:     948
 k-point  4 :   0.0789 0.0000 0.0000  plane waves:     946
 k-point  5 :   0.1053 0.0000 0.0000  plane waves:     948
 k-point  6 :   0.1316 0.0000 0.0000  plane waves:     948
 k-point  7 :   0.1579 0.0000 0.0000  plane waves:     948
 k-point  8 :   0.1842 0.0000 0.0000  plane waves:     954
 k-point  9 :   0.2105 0.0000 0.0000  plane waves:     954
 k-point 10 :   0.2368 0.0000 0.0000  plane waves:     962
 k-point 11 :   0.2632 0.0000 0.0000  plane waves:     960
 k-point 12 :   0.2895 0.0000 0.0000  plane waves:     964
 k-point 13 :   0.3158 0.0000 0.0000  plane waves:     966
 k-point 14 :   0.3421 0.0000 0.0000  plane waves:     962
 k-point 15 :   0.3684 0.0000 0.0000  plane waves:     954
 k-point 16 :   0.3947 0.0000 0.0000  plane waves:     964
 k-point 17 :   0.4211 0.0000 0.0000  plane waves:     962
 k-point 18 :   0.4474 0.0000 0.0000  plane waves:     964
 k-point 19 :   0.4737 0.0000 0.0000  plane waves:     972
 k-point 20 :   0.5000 0.0000 0.0000  plane waves:     972
 k-point 21 :   0.5000 0.0000 0.0000  plane waves:     972
 k-point 22 :   0.4912 0.0175 0.0000  plane waves:     970
 k-point 23 :   0.4825 0.0351 0.0000  plane waves:     970
 k-point 24 :   0.4737 0.0526 0.0000  plane waves:     966
 k-point 25 :   0.4649 0.0702 0.0000  plane waves:     962
 k-point 26 :   0.4561 0.0877 0.0000  plane waves:     958
 k-point 27 :   0.4474 0.1053 0.0000  plane waves:     956
 k-point 28 :   0.4386 0.1228 0.0000  plane waves:     952
 k-point 29 :   0.4298 0.1403 0.0000  plane waves:     956
 k-point 30 :   0.4210 0.1579 0.0000  plane waves:     956
 k-point 31 :   0.4123 0.1754 0.0000  plane waves:     960
 k-point 32 :   0.4035 0.1930 0.0000  plane waves:     966
 k-point 33 :   0.3947 0.2105 0.0000  plane waves:     962
 k-point 34 :   0.3859 0.2280 0.0000  plane waves:     958
 k-point 35 :   0.3772 0.2456 0.0000  plane waves:     958
 k-point 36 :   0.3684 0.2631 0.0000  plane waves:     958
 k-point 37 :   0.3596 0.2807 0.0000  plane waves:     958
 k-point 38 :   0.3508 0.2982 0.0000  plane waves:     958
 k-point 39 :   0.3421 0.3158 0.0000  plane waves:     958
 k-point 40 :   0.3333 0.3333 0.0000  plane waves:     966
 k-point 41 :   0.3333 0.3333 0.0000  plane waves:     966
 k-point 42 :   0.3158 0.3158 0.0000  plane waves:     956
 k-point 43 :   0.2982 0.2982 0.0000  plane waves:     956
 k-point 44 :   0.2807 0.2807 0.0000  plane waves:     960
 k-point 45 :   0.2631 0.2631 0.0000  plane waves:     958
 k-point 46 :   0.2456 0.2456 0.0000  plane waves:     952
 k-point 47 :   0.2280 0.2280 0.0000  plane waves:     960
 k-point 48 :   0.2105 0.2105 0.0000  plane waves:     970
 k-point 49 :   0.1930 0.1930 0.0000  plane waves:     960
 k-point 50 :   0.1754 0.1754 0.0000  plane waves:     956
 k-point 51 :   0.1579 0.1579 0.0000  plane waves:     956
 k-point 52 :   0.1403 0.1403 0.0000  plane waves:     962
 k-point 53 :   0.1228 0.1228 0.0000  plane waves:     961
 k-point 54 :   0.1053 0.1053 0.0000  plane waves:     957
 k-point 55 :   0.0877 0.0877 0.0000  plane waves:     955
 k-point 56 :   0.0702 0.0702 0.0000  plane waves:     955
 k-point 57 :   0.0526 0.0526 0.0000  plane waves:     947
 k-point 58 :   0.0351 0.0351 0.0000  plane waves:     939
 k-point 59 :   0.0175 0.0175 0.0000  plane waves:     943
 k-point 60 :   0.0000 0.0000 0.0000  plane waves:     941
 k-point 61 :   0.0000 0.0000 0.0000  plane waves:     941
 k-point 62 :   0.0000 0.0000 0.0263  plane waves:     941
 k-point 63 :   0.0000 0.0000 0.0526  plane waves:     940
 k-point 64 :   0.0000 0.0000 0.0789  plane waves:     940
 k-point 65 :   0.0000 0.0000 0.1053  plane waves:     940
 k-point 66 :   0.0000 0.0000 0.1316  plane waves:     952
 k-point 67 :   0.0000 0.0000 0.1579  plane waves:     946
 k-point 68 :   0.0000 0.0000 0.1842  plane waves:     946
 k-point 69 :   0.0000 0.0000 0.2105  plane waves:     958
 k-point 70 :   0.0000 0.0000 0.2368  plane waves:     970
 k-point 71 :   0.0000 0.0000 0.2632  plane waves:     970
 k-point 72 :   0.0000 0.0000 0.2895  plane waves:     970
 k-point 73 :   0.0000 0.0000 0.3158  plane waves:     970
 k-point 74 :   0.0000 0.0000 0.3421  plane waves:     970
 k-point 75 :   0.0000 0.0000 0.3684  plane waves:     964
 k-point 76 :   0.0000 0.0000 0.3947  plane waves:     964
 k-point 77 :   0.0000 0.0000 0.4211  plane waves:     958
 k-point 78 :   0.0000 0.0000 0.4474  plane waves:     958
 k-point 79 :   0.0000 0.0000 0.4737  plane waves:     972
 k-point 80 :   0.0000 0.0000 0.5000  plane waves:     976
 k-point 81 :   0.0000 0.0000 0.5000  plane waves:     976
 k-point 82 :   0.0263 0.0000 0.5000  plane waves:     972
 k-point 83 :   0.0526 0.0000 0.5000  plane waves:     966
 k-point 84 :   0.0789 0.0000 0.5000  plane waves:     972
 k-point 85 :   0.1053 0.0000 0.5000  plane waves:     972
 k-point 86 :   0.1316 0.0000 0.5000  plane waves:     972
 k-point 87 :   0.1579 0.0000 0.5000  plane waves:     964
 k-point 88 :   0.1842 0.0000 0.5000  plane waves:     968
 k-point 89 :   0.2105 0.0000 0.5000  plane waves:     964
 k-point 90 :   0.2368 0.0000 0.5000  plane waves:     966
 k-point 91 :   0.2632 0.0000 0.5000  plane waves:     970
 k-point 92 :   0.2895 0.0000 0.5000  plane waves:     972
 k-point 93 :   0.3158 0.0000 0.5000  plane waves:     972
 k-point 94 :   0.3421 0.0000 0.5000  plane waves:     976
 k-point 95 :   0.3684 0.0000 0.5000  plane waves:     976
 k-point 96 :   0.3947 0.0000 0.5000  plane waves:     974
 k-point 97 :   0.4211 0.0000 0.5000  plane waves:     962
 k-point 98 :   0.4474 0.0000 0.5000  plane waves:     970
 k-point 99 :   0.4737 0.0000 0.5000  plane waves:     966
 k-point ** :   0.5000 0.0000 0.5000  plane waves:     964
 k-point ** :   0.5000 0.0000 0.5000  plane waves:     964
 k-point ** :   0.4912 0.0175 0.5000  plane waves:     964
 k-point ** :   0.4825 0.0351 0.5000  plane waves:     968
 k-point ** :   0.4737 0.0526 0.5000  plane waves:     972
 k-point ** :   0.4649 0.0702 0.5000  plane waves:     972
 k-point ** :   0.4561 0.0877 0.5000  plane waves:     972
 k-point ** :   0.4474 0.1053 0.5000  plane waves:     972
 k-point ** :   0.4386 0.1228 0.5000  plane waves:     972
 k-point ** :   0.4298 0.1403 0.5000  plane waves:     972
 k-point ** :   0.4210 0.1579 0.5000  plane waves:     968
 k-point ** :   0.4123 0.1754 0.5000  plane waves:     956
 k-point ** :   0.4035 0.1930 0.5000  plane waves:     958
 k-point ** :   0.3947 0.2105 0.5000  plane waves:     962
 k-point ** :   0.3859 0.2280 0.5000  plane waves:     958
 k-point ** :   0.3772 0.2456 0.5000  plane waves:     960
 k-point ** :   0.3684 0.2631 0.5000  plane waves:     956
 k-point ** :   0.3596 0.2807 0.5000  plane waves:     952
 k-point ** :   0.3508 0.2982 0.5000  plane waves:     952
 k-point ** :   0.3421 0.3158 0.5000  plane waves:     956
 k-point ** :   0.3333 0.3333 0.5000  plane waves:     960
 k-point ** :   0.3333 0.3333 0.5000  plane waves:     960
 k-point ** :   0.3158 0.3158 0.5000  plane waves:     960
 k-point ** :   0.2982 0.2982 0.5000  plane waves:     966
 k-point ** :   0.2807 0.2807 0.5000  plane waves:     962
 k-point ** :   0.2631 0.2631 0.5000  plane waves:     956
 k-point ** :   0.2456 0.2456 0.5000  plane waves:     952
 k-point ** :   0.2280 0.2280 0.5000  plane waves:     956
 k-point ** :   0.2105 0.2105 0.5000  plane waves:     960
 k-point ** :   0.1930 0.1930 0.5000  plane waves:     960
 k-point ** :   0.1754 0.1754 0.5000  plane waves:     960
 k-point ** :   0.1579 0.1579 0.5000  plane waves:     966
 k-point ** :   0.1403 0.1403 0.5000  plane waves:     962
 k-point ** :   0.1228 0.1228 0.5000  plane waves:     956
 k-point ** :   0.1053 0.1053 0.5000  plane waves:     964
 k-point ** :   0.0877 0.0877 0.5000  plane waves:     970
 k-point ** :   0.0702 0.0702 0.5000  plane waves:     970
 k-point ** :   0.0526 0.0526 0.5000  plane waves:     970
 k-point ** :   0.0351 0.0351 0.5000  plane waves:     970
 k-point ** :   0.0175 0.0175 0.5000  plane waves:     972
 k-point ** :   0.0000 0.0000 0.5000  plane waves:     976
 k-point ** :   0.5000 0.0000 0.5000  plane waves:     964
 k-point ** :   0.5000 0.0000 0.4737  plane waves:     968
 k-point ** :   0.5000 0.0000 0.4474  plane waves:     968
 k-point ** :   0.5000 0.0000 0.4211  plane waves:     966
 k-point ** :   0.5000 0.0000 0.3947  plane waves:     966
 k-point ** :   0.5000 0.0000 0.3684  plane waves:     962
 k-point ** :   0.5000 0.0000 0.3421  plane waves:     960
 k-point ** :   0.5000 0.0000 0.3158  plane waves:     968
 k-point ** :   0.5000 0.0000 0.2895  plane waves:     968
 k-point ** :   0.5000 0.0000 0.2632  plane waves:     962
 k-point ** :   0.5000 0.0000 0.2368  plane waves:     966
 k-point ** :   0.5000 0.0000 0.2105  plane waves:     974
 k-point ** :   0.5000 0.0000 0.1842  plane waves:     974
 k-point ** :   0.5000 0.0000 0.1579  plane waves:     974
 k-point ** :   0.5000 0.0000 0.1316  plane waves:     968
 k-point ** :   0.5000 0.0000 0.1053  plane waves:     976
 k-point ** :   0.5000 0.0000 0.0789  plane waves:     974
 k-point ** :   0.5000 0.0000 0.0526  plane waves:     972
 k-point ** :   0.5000 0.0000 0.0263  plane waves:     974
 k-point ** :   0.5000 0.0000 0.0000  plane waves:     972
 k-point ** :   0.3333 0.3333 0.0000  plane waves:     966
 k-point ** :   0.3333 0.3333 0.0263  plane waves:     963
 k-point ** :   0.3333 0.3333 0.0526  plane waves:     966
 k-point ** :   0.3333 0.3333 0.0789  plane waves:     972
 k-point ** :   0.3333 0.3333 0.1053  plane waves:     972
 k-point ** :   0.3333 0.3333 0.1316  plane waves:     963
 k-point ** :   0.3333 0.3333 0.1579  plane waves:     957
 k-point ** :   0.3333 0.3333 0.1842  plane waves:     957
 k-point ** :   0.3333 0.3333 0.2105  plane waves:     960
 k-point ** :   0.3333 0.3333 0.2368  plane waves:     954
 k-point ** :   0.3333 0.3333 0.2632  plane waves:     954
 k-point ** :   0.3333 0.3333 0.2895  plane waves:     954
 k-point ** :   0.3333 0.3333 0.3158  plane waves:     963
 k-point ** :   0.3333 0.3333 0.3421  plane waves:     957
 k-point ** :   0.3333 0.3333 0.3684  plane waves:     963
 k-point ** :   0.3333 0.3333 0.3947  plane waves:     963
 k-point ** :   0.3333 0.3333 0.4211  plane waves:     951
 k-point ** :   0.3333 0.3333 0.4474  plane waves:     951
 k-point ** :   0.3333 0.3333 0.4737  plane waves:     960
 k-point ** :   0.3333 0.3333 0.5000  plane waves:     960

 maximum and minimum number of plane-waves per node :       172      150

 maximum number of plane-waves:       976
 maximum index in each direction: 
   IXMAX=    5   IYMAX=    5   IZMAX=    8
   IXMIN=   -6   IYMIN=   -6   IZMIN=   -8


 real space projection operators:
  total allocation   :        694.60 KBytes
  max/ min on nodes  :        122.18        113.37


 parallel 3D FFT for wavefunctions:
    minimum data exchange during FFTs selected (reduces bandwidth)
 parallel 3D FFT for charge:
    minimum data exchange during FFTs selected (reduces bandwidth)


 total amount of memory used by VASP MPI-rank0    32971. kBytes
=======================================================================

   base      :      30000. kBytes
   nonlr-proj:        276. kBytes
   fftplans  :        156. kBytes
   grid      :        252. kBytes
   one-center:         30. kBytes
   wavefun   :       2257. kBytes
 
     INWAV:  cpu time    0.2247: real time    0.2248
 initial charge density was supplied:
 number of electron      22.0000023 magnetization 
 keeping initial charge density in first step


--------------------------------------------------------------------------------------------------------


 Maximum index for non-local projection operator          429
 Maximum index for augmentation-charges          370 (set IRDMAX)


--------------------------------------------------------------------------------------------------------


 First call to EWALD:  gamma=   0.441
 Maximum number of real-space cells 3x 3x 2
 Maximum number of reciprocal cells 3x 3x 3

    FEWALD:  cpu time    0.0015: real time    0.0015


--------------------------------------- Iteration      1(   1)  ---------------------------------------


    POTLOK:  cpu time    0.0053: real time    0.0120
    SETDIJ:  cpu time    0.0037: real time    0.0037
     EDDAV:  cpu time    1.4901: real time    1.4906
       DOS:  cpu time    0.0036: real time    0.0036
    --------------------------------------------
      LOOP:  cpu time    1.5027: real time    1.5100

 eigenvalue-minimisations  :  8224
 total energy-change (2. order) :-0.1034150E+02  (-0.5117534E+02)
 number of electron      22.0000023 magnetization 
 augmentation part       22.0000023 magnetization 

 Free energy of the ion-electron system (eV)
  ---------------------------------------------------
  alpha Z        PSCENC =        72.03602387
  Ewald energy   TEWEN  =     -1138.01183584
  -Hartree energ DENC   =      -248.03827096
  -exchange      EXHF   =         0.00000000
  -V(xc)+E(xc)   XCENC  =       -52.28411500
  PAW double counting   =      1376.09046217    -1266.76182107
  entropy T*S    EENTRO =        -0.00681805
  eigenvalues    EBANDS =         3.29606930
  atomic energy  EATOM  =      1243.33880873
  Solvation  Ediel_sol  =         0.00000000
  ---------------------------------------------------
  free energy    TOTEN  =       -10.34149684 eV

  energy without entropy =      -10.33467879  energy(sigma->0) =      -10.33808782


--------------------------------------------------------------------------------------------------------




--------------------------------------- Iteration      1(   2)  ---------------------------------------


     EDDAV:  cpu time    1.3231: real time    1.3234
       DOS:  cpu time    0.0038: real time    0.0038
    --------------------------------------------
      LOOP:  cpu time    1.3269: real time    1.3272

 eigenvalue-minimisations  :  7208
 total energy-change (2. order) :-0.3725365E+01  (-0.3691125E+01)
 number of electron      22.0000023 magnetization 
 augmentation part       22.0000023 magnetization 

 Free energy of the ion-electron system (eV)
  ---------------------------------------------------
  alpha Z        PSCENC =        72.03602387
  Ewald energy   TEWEN  =     -1138.01183584
  -Hartree energ DENC   =      -248.03827096
  -exchange      EXHF   =         0.00000000
  -V(xc)+E(xc)   XCENC  =       -52.28411500
  PAW double counting   =      1376.09046217    -1266.76182107
  entropy T*S    EENTRO =        -0.00889455
  eigenvalues    EBANDS =        -0.42721875
  atomic energy  EATOM  =      1243.33880873
  Solvation  Ediel_sol  =         0.00000000
  ---------------------------------------------------
  free energy    TOTEN  =       -14.06686140 eV

  energy without entropy =      -14.05796685  energy(sigma->0) =      -14.06241413


--------------------------------------------------------------------------------------------------------




--------------------------------------- Iteration      1(   3)  ---------------------------------------


     EDDAV:  cpu time    1.2154: real time    1.2157
       DOS:  cpu time    0.0037: real time    0.0037
    --------------------------------------------
      LOOP:  cpu time    1.2191: real time    1.2194

 eigenvalue-minimisations  :  6376
 total energy-change (2. order) :-0.4411383E-01  (-0.4409050E-01)
 number of electron      22.0000023 magnetization 
 augmentation part       22.0000023 magnetization 

 Free energy of the ion-electron system (eV)
  ---------------------------------------------------
  alpha Z        PSCENC =        72.03602387
  Ewald energy   TEWEN  =     -1138.01183584
  -Hartree energ DENC   =      -248.03827096
  -exchange      EXHF   =         0.00000000
  -V(xc)+E(xc)   XCENC  =       -52.28411500
  PAW double counting   =      1376.09046217    -1266.76182107
  entropy T*S    EENTRO =        -0.00889521
  eigenvalues    EBANDS =        -0.47133193
  atomic energy  EATOM  =      1243.33880873
  Solvation  Ediel_sol  =         0.00000000
  ---------------------------------------------------
  free energy    TOTEN  =       -14.11097523 eV

  energy without entropy =      -14.10208002  energy(sigma->0) =      -14.10652763


--------------------------------------------------------------------------------------------------------




--------------------------------------- Iteration      1(   4)  ---------------------------------------


     EDDAV:  cpu time    1.2829: real time    1.2835
       DOS:  cpu time    0.0037: real time    0.0037
    --------------------------------------------
      LOOP:  cpu time    1.2867: real time    1.2872

 eigenvalue-minimisations  :  6848
 total energy-change (2. order) :-0.1874297E-02  (-0.1874226E-02)
 number of electron      22.0000023 magnetization 
 augmentation part       22.0000023 magnetization 

 Free energy of the ion-electron system (eV)
  ---------------------------------------------------
  alpha Z        PSCENC =        72.03602387
  Ewald energy   TEWEN  =     -1138.01183584
  -Hartree energ DENC   =      -248.03827096
  -exchange      EXHF   =         0.00000000
  -V(xc)+E(xc)   XCENC  =       -52.28411500
  PAW double counting   =      1376.09046217    -1266.76182107
  entropy T*S    EENTRO =        -0.00889513
  eigenvalues    EBANDS =        -0.47320630
  atomic energy  EATOM  =      1243.33880873
  Solvation  Ediel_sol  =         0.00000000
  ---------------------------------------------------
  free energy    TOTEN  =       -14.11284953 eV

  energy without entropy =      -14.10395440  energy(sigma->0) =      -14.10840196


--------------------------------------------------------------------------------------------------------




--------------------------------------- Iteration      1(   5)  ---------------------------------------


     EDDAV:  cpu time    1.0100: real time    1.0106
       DOS:  cpu time    0.0038: real time    0.0038
    --------------------------------------------
      LOOP:  cpu time    1.0138: real time    1.0145

 eigenvalue-minimisations  :  4800
 total energy-change (2. order) :-0.1128341E-04  (-0.1127774E-04)
 number of electron      22.0000023 magnetization 
 augmentation part       22.0000023 magnetization 

 Free energy of the ion-electron system (eV)
  ---------------------------------------------------
  alpha Z        PSCENC =        72.03602387
  Ewald energy   TEWEN  =     -1138.01183584
  -Hartree energ DENC   =      -248.03827096
  -exchange      EXHF   =         0.00000000
  -V(xc)+E(xc)   XCENC  =       -52.28411500
  PAW double counting   =      1376.09046217    -1266.76182107
  entropy T*S    EENTRO =        -0.00889513
  eigenvalues    EBANDS =        -0.47321758
  atomic energy  EATOM  =      1243.33880873
  Solvation  Ediel_sol  =         0.00000000
  ---------------------------------------------------
  free energy    TOTEN  =       -14.11286081 eV

  energy without entropy =      -14.10396568  energy(sigma->0) =      -14.10841324


--------------------------------------------------------------------------------------------------------




 average (electrostatic) potential at core
  the test charge radii are     1.1311  1.0808
  (the norm of the test charge is              1.0000)
       1 -82.0948       2 -53.4831       3 -53.4831
 
 
 
 E-fermi :   5.7570     XC(G=0): -10.3776     alpha+bet :-10.4562


 k-point     1 :       0.0000    0.0000    0.0000
  band No.  band energies     occupation 
      1      -9.5381      2.00000
      2      -7.1353      2.00000
      3      -1.0620      2.00000
      4      -0.3530      2.00000
      5      -0.3526      2.00000
      6       1.9072      2.00000
      7       1.9073      2.00000
      8       3.1851      2.00000
      9       4.6870      2.00000
     10       4.6873      2.00000
     11       5.9330      0.01280
     12       7.1499      0.00000
     13       7.1499      0.00000
     14       9.5103      0.00000
     15       9.5279      0.00000
     16      13.0195      0.00000

 k-point     2 :       0.0263    0.0000    0.0000
  band No.  band energies     occupation 
      1      -9.5309      2.00000
      2      -7.1377      2.00000
      3      -1.0531      2.00000
      4      -0.3488      2.00000
      5      -0.3481      2.00000
      6       1.8983      2.00000
      7       1.9017      2.00000
      8       3.1710      2.00000
      9       4.6544      2.00000
     10       4.6820      2.00000
     11       5.9205      0.02081
     12       7.1216      0.00000
     13       7.1490      0.00000
     14       9.5586      0.00000
     15       9.5901      0.00000
     16      12.9848      0.00000

 k-point     3 :       0.0526    0.0000    0.0000
  band No.  band energies     occupation 
      1      -9.5092      2.00000
      2      -7.1450      2.00000
      3      -1.0266      2.00000
      4      -0.3367      2.00000
      5      -0.3341      2.00000
      6       1.8704      2.00000
      7       1.8851      2.00000
      8       3.1283      2.00000
      9       4.5641      2.00000
     10       4.6663      2.00000
     11       5.8791      0.08420
     12       7.0515      0.00000
     13       7.1470      0.00000
     14       9.6968      0.00000
     15       9.7626      0.00000
     16      12.8810      0.00000

 k-point     4 :       0.0789    0.0000    0.0000
  band No.  band energies     occupation 
      1      -9.4734      2.00000
      2      -7.1569      2.00000
      3      -0.9829      2.00000
      4      -0.3165      2.00000
      5      -0.3107      2.00000
      6       1.8214      2.00000
      7       1.8593      2.00000
      8       3.0563      2.00000
      9       4.4370      2.00000
     10       4.6378      2.00000
     11       5.7995      0.54776
     12       6.9719      0.00000
     13       7.1470      0.00000
     14       9.9077      0.00000
     15      10.0115      0.00000
     16      12.7393      0.00000

 k-point     5 :       0.1053    0.0000    0.0000
  band No.  band energies     occupation 
      1      -9.4238      2.00000
      2      -7.1734      2.00000
      3      -0.9226      2.00000
      4      -0.2879      2.00000
      5      -0.2789      2.00000
      6       1.7464      2.00000
      7       1.8262      2.00000
      8       2.9566      2.00000
      9       4.2973      2.00000
     10       4.5941      2.00000
     11       5.6727      1.76700
     12       6.9117      0.00000
     13       7.1522      0.00000
     14      10.1717      0.00000
     15      10.2919      0.00000
     16      12.5959      0.00000

 k-point     6 :       0.1316    0.0000    0.0000
  band No.  band energies     occupation 
      1      -9.3609      2.00000
      2      -7.1939      2.00000
      3      -0.8470      2.00000
      4      -0.2503      2.00000
      5      -0.2395      2.00000
      6       1.6393      2.00000
      7       1.7886      2.00000
      8       2.8373      2.00000
      9       4.1639      2.00000
     10       4.5329      2.00000
     11       5.4990      1.99974
     12       6.8823      0.00000
     13       7.1663      0.00000
     14      10.4718      0.00000
     15      10.5460      0.00000
     16      12.5035      0.00000

 k-point     7 :       0.1579    0.0000    0.0000
  band No.  band energies     occupation 
      1      -9.2855      2.00000
      2      -7.2184      2.00000
      3      -0.7579      2.00000
      4      -0.2030      2.00000
      5      -0.1935      2.00000
      6       1.4939      2.00000
      7       1.7497      2.00000
      8       2.7131      2.00000
      9       4.0449      2.00000
     10       4.4525      2.00000
     11       5.2890      2.00000
     12       6.8781      0.00000
     13       7.1918      0.00000
     14      10.7042      0.00000
     15      10.7935      0.00000
     16      12.5267      0.00000

 k-point     8 :       0.1842    0.0000    0.0000
  band No.  band energies     occupation 
      1      -9.1986      2.00000
      2      -7.2463      2.00000
      3      -0.6586      2.00000
      4      -0.1449      2.00000
      5      -0.1425      2.00000
      6       1.3089      2.00000
      7       1.7129      2.00000
      8       2.5991      2.00000
      9       3.9391      2.00000
     10       4.3527      2.00000
     11       5.0565      2.00000
     12       6.8857      0.00000
     13       7.2294      0.00000
     14      10.7283      0.00000
     15      11.1219      0.00000
     16      12.6945      0.00000

 k-point     9 :       0.2105    0.0000    0.0000
  band No.  band energies     occupation 
      1      -9.1011      2.00000
      2      -7.2774      2.00000
      3      -0.5548      2.00000
      4      -0.0883      2.00000
      5      -0.0736      2.00000
      6       1.0926      2.00000
      7       1.6819      2.00000
      8       2.5043      2.00000
      9       3.8402      2.00000
     10       4.2346      2.00000
     11       4.8140      2.00000
     12       6.8917      0.00000
     13       7.2784      0.00000
     14      10.6514      0.00000
     15      11.4390      0.00000
     16      12.9539      0.00000

 k-point    10 :       0.2368    0.0000    0.0000
  band No.  band energies     occupation 
      1      -8.9946      2.00000
      2      -7.3114      2.00000
      3      -0.4569      2.00000
      4      -0.0331      2.00000
      5       0.0137      2.00000
      6       0.8628      2.00000
      7       1.6602      2.00000
      8       2.4297      2.00000
      9       3.7401      2.00000
     10       4.1002      2.00000
     11       4.5713      2.00000
     12       6.8850      0.00000
     13       7.3368      0.00000
     14      10.5329      0.00000
     15      11.7168      0.00000
     16      13.2026      0.00000

 k-point    11 :       0.2632    0.0000    0.0000
  band No.  band energies     occupation 
      1      -8.8804      2.00000
      2      -7.3480      2.00000
      3      -0.3832      2.00000
      4       0.0207      2.00000
      5       0.1193      2.00000
      6       0.6482      2.00000
      7       1.6518      2.00000
      8       2.3723      2.00000
      9       3.6308      2.00000
     10       3.9521      2.00000
     11       4.3363      2.00000
     12       6.8587      0.00000
     13       7.4016      0.00000
     14      10.4144      0.00000
     15      11.9161      0.00000
     16      13.3317      0.00000

 k-point    12 :       0.2895    0.0000    0.0000
  band No.  band energies     occupation 
      1      -8.7606      2.00000
      2      -7.3872      2.00000
      3      -0.3650      2.00000
      4       0.0706      2.00000
      5       0.2346      2.00000
      6       0.4987      2.00000
      7       1.6598      2.00000
      8       2.3275      2.00000
      9       3.5056      2.00000
     10       3.7931      2.00000
     11       4.1145      2.00000
     12       6.8111      0.00000
     13       7.4698      0.00000
     14      10.3176      0.00000
     15      12.0037      0.00000
     16      13.3045      0.00000

 k-point    13 :       0.3158    0.0000    0.0000
  band No.  band energies     occupation 
      1      -8.6371      2.00000
      2      -7.4290      2.00000
      3      -0.4334      2.00000
      4       0.1144      2.00000
      5       0.3064      2.00000
      6       0.5072      2.00000
      7       1.6869      2.00000
      8       2.2919      2.00000
      9       3.3622      2.00000
     10       3.6259      2.00000
     11       3.9079      2.00000
     12       6.7452      0.00000
     13       7.5380      0.00000
     14      10.2506      0.00000
     15      11.9849      0.00000
     16      13.2029      0.00000

 k-point    14 :       0.3421    0.0000    0.0000
  band No.  band energies     occupation 
      1      -8.5121      2.00000
      2      -7.4737      2.00000
      3      -0.5761      2.00000
      4       0.1507      2.00000
      5       0.3445      2.00000
      6       0.6562      2.00000
      7       1.7350      2.00000
      8       2.2625      2.00000
      9       3.2051      2.00000
     10       3.4533      2.00000
     11       3.7129      2.00000
     12       6.6686      0.00000
     13       7.6033      0.00000
     14      10.2130      0.00000
     15      11.8987      0.00000
     16      13.0891      0.00000

 k-point    15 :       0.3684    0.0000    0.0000
  band No.  band energies     occupation 
      1      -8.3881      2.00000
      2      -7.5218      2.00000
      3      -0.7472      2.00000
      4       0.1790      2.00000
      5       0.4053      2.00000
      6       0.8451      2.00000
      7       1.8044      2.00000
      8       2.2372      2.00000
      9       3.0441      2.00000
     10       3.2775      2.00000
     11       3.5233      2.00000
     12       6.5900      0.00000
     13       7.6630      0.00000
     14      10.1993      0.00000
     15      11.7839      0.00000
     16      12.9847      0.00000

 k-point    16 :       0.3947    0.0000    0.0000
  band No.  band energies     occupation 
      1      -8.2674      2.00000
      2      -7.5742      2.00000
      3      -0.9128      2.00000
      4       0.1995      2.00000
      5       0.4799      2.00000
      6       1.0458      2.00000
      7       1.8942      2.00000
      8       2.2155      2.00000
      9       2.8902      2.00000
     10       3.1007      2.00000
     11       3.3345      2.00000
     12       6.5176      0.00000
     13       7.7149      0.00000
     14      10.2021      0.00000
     15      11.6661      0.00000
     16      12.8973      0.00000

 k-point    17 :       0.4211    0.0000    0.0000
  band No.  band energies     occupation 
      1      -8.1524      2.00000
      2      -7.6316      2.00000
      3      -1.0543      2.00000
      4       0.2135      2.00000
      5       0.5557      2.00000
      6       1.2439      2.00000
      7       2.0029      2.00000
      8       2.2002      2.00000
      9       2.7524      2.00000
     10       2.9252      2.00000
     11       3.1494      2.00000
     12       6.4576      0.00000
     13       7.7571      0.00000
     14      10.2138      0.00000
     15      11.5614      0.00000
     16      12.8295      0.00000

 k-point    18 :       0.4474    0.0000    0.0000
  band No.  band energies     occupation 
      1      -8.0453      2.00000
      2      -7.6950      2.00000
      3      -1.1615      2.00000
      4       0.2222      2.00000
      5       0.6217      2.00000
      6       1.4202      2.00000
      7       2.1277      2.00000
      8       2.2011      2.00000
      9       2.6312      2.00000
     10       2.7530      2.00000
     11       2.9825      2.00000
     12       6.4134      0.00000
     13       7.7882      0.00000
     14      10.2277      0.00000
     15      11.4797      0.00000
     16      12.7815      0.00000

 k-point    19 :       0.4737    0.0000    0.0000
  band No.  band energies     occupation 
      1      -7.9489      2.00000
      2      -7.7640      2.00000
      3      -1.2281      2.00000
      4       0.2268      2.00000
      5       0.6672      2.00000
      6       1.5454      2.00000
      7       2.2325      2.00000
      8       2.2649      2.00000
      9       2.5211      2.00000
     10       2.5876      2.00000
     11       2.8633      2.00000
     12       6.3866      0.00000
     13       7.8073      0.00000
     14      10.2384      0.00000
     15      11.4280      0.00000
     16      12.7530      0.00000

 k-point    20 :       0.5000    0.0000    0.0000
  band No.  band energies     occupation 
      1      -7.8865      2.00000
      2      -7.8171      2.00000
      3      -1.2507      2.00000
      4       0.2283      2.00000
      5       0.6836      2.00000
      6       1.5906      2.00000
      7       2.2685      2.00000
      8       2.3810      2.00000
      9       2.4568      2.00000
     10       2.4622      2.00000
     11       2.8209      2.00000
     12       6.3776      0.00000
     13       7.8137      0.00000
     14      10.2424      0.00000
     15      11.4103      0.00000
     16      12.7436      0.00000

 k-point    21 :       0.5000    0.0000    0.0000
  band No.  band energies     occupation 
      1      -7.8865      2.00000
      2      -7.8171      2.00000
      3      -1.2507      2.00000
      4       0.2283      2.00000
      5       0.6836      2.00000
      6       1.5906      2.00000
      7       2.2685      2.00000
      8       2.3810      2.00000
      9       2.4568      2.00000
     10       2.4622      2.00000
     11       2.8209      2.00000
     12       6.3776      0.00000
     13       7.8137      0.00000
     14      10.2424      0.00000
     15      11.4103      0.00000
     16      12.7436      0.00000

 k-point    22 :       0.4912    0.0175    0.0000
  band No.  band energies     occupation 
      1      -7.8861      2.00000
      2      -7.8162      2.00000
      3      -1.2484      2.00000
      4       0.2247      2.00000
      5       0.6850      2.00000
      6       1.5895      2.00000
      7       2.2608      2.00000
      8       2.3830      2.00000
      9       2.4002      2.00000
     10       2.4607      2.00000
     11       2.8911      2.00000
     12       6.3747      0.00000
     13       7.7936      0.00000
     14      10.2410      0.00000
     15      11.4351      0.00000
     16      12.6855      0.00000

 k-point    23 :       0.4825    0.0351    0.0000
  band No.  band energies     occupation 
      1      -7.8848      2.00000
      2      -7.8137      2.00000
      3      -1.2417      2.00000
      4       0.2145      2.00000
      5       0.6890      2.00000
      6       1.5855      2.00000
      7       2.2341      2.00000
      8       2.2499      2.00000
      9       2.4456      2.00000
     10       2.4565      2.00000
     11       3.0288      2.00000
     12       6.3658      0.00000
     13       7.7352      0.00000
     14      10.2365      0.00000
     15      11.5077      0.00000
     16      12.5741      0.00000

 k-point    24 :       0.4737    0.0526    0.0000
  band No.  band energies     occupation 
      1      -7.8827      2.00000
      2      -7.8095      2.00000
      3      -1.2306      2.00000
      4       0.1984      2.00000
      5       0.6956      2.00000
      6       1.5775      2.00000
      7       2.0655      2.00000
      8       2.2485      2.00000
      9       2.4494      2.00000
     10       2.5047      2.00000
     11       3.1791      2.00000
     12       6.3509      0.00000
     13       7.6432      0.00000
     14      10.2279      0.00000
     15      11.6232      0.00000
     16      12.4637      0.00000

 k-point    25 :       0.4649    0.0702    0.0000
  band No.  band energies     occupation 
      1      -7.8798      2.00000
      2      -7.8038      2.00000
      3      -1.2151      2.00000
      4       0.1774      2.00000
      5       0.7042      2.00000
      6       1.5643      2.00000
      7       1.8914      2.00000
      8       2.2615      2.00000
      9       2.4395      2.00000
     10       2.5725      2.00000
     11       3.3280      2.00000
     12       6.3300      0.00000
     13       7.5240      0.00000
     14      10.2133      0.00000
     15      11.7751      0.00000
     16      12.3720      0.00000

 k-point    26 :       0.4561    0.0877    0.0000
  band No.  band energies     occupation 
      1      -7.8760      2.00000
      2      -7.7967      2.00000
      3      -1.1956      2.00000
      4       0.1527      2.00000
      5       0.7143      2.00000
      6       1.5456      2.00000
      7       1.7174      2.00000
      8       2.2898      2.00000
      9       2.4270      2.00000
     10       2.6469      2.00000
     11       3.4705      2.00000
     12       6.3031      0.00000
     13       7.3844      0.00000
     14      10.1914      0.00000
     15      11.9566      0.00000
     16      12.3065      0.00000

 k-point    27 :       0.4474    0.1053    0.0000
  band No.  band energies     occupation 
      1      -7.8714      2.00000
      2      -7.7884      2.00000
      3      -1.1720      2.00000
      4       0.1256      2.00000
      5       0.7242      2.00000
      6       1.5218      2.00000
      7       1.5474      2.00000
      8       2.3322      2.00000
[...]
     12       6.1386      0.00000
     13       6.1389      0.00000
     14      10.1206      0.00000
     15      13.2959      0.00000
     16      14.2219      0.00000

 k-point   168 :       0.3333    0.3333    0.1842
  band No.  band energies     occupation 
      1      -7.7369      2.00000
      2      -7.7367      2.00000
      3      -0.6882      2.00000
      4      -0.1458      2.00000
      5      -0.1455      2.00000
      6       1.2618      2.00000
      7       1.2622      2.00000
      8       2.1422      2.00000
      9       2.7181      2.00000
     10       3.6865      2.00000
     11       3.6869      2.00000
     12       6.2603      0.00000
     13       6.2607      0.00000
     14      10.2620      0.00000
     15      13.2977      0.00000
     16      14.1218      0.00000

 k-point   169 :       0.3333    0.3333    0.2105
  band No.  band energies     occupation 
      1      -7.7354      2.00000
      2      -7.7353      2.00000
      3      -0.6542      2.00000
      4      -0.1680      2.00000
      5      -0.1677      2.00000
      6       1.2778      2.00000
      7       1.2782      2.00000
      8       2.1392      2.00000
      9       2.6341      2.00000
     10       3.6359      2.00000
     11       3.6362      2.00000
     12       6.3897      0.00000
     13       6.3901      0.00000
     14      10.4166      0.00000
     15      13.2989      0.00000
     16      14.0030      0.00000

 k-point   170 :       0.3333    0.3333    0.2368
  band No.  band energies     occupation 
      1      -7.7339      2.00000
      2      -7.7337      2.00000
      3      -0.6174      2.00000
      4      -0.1905      2.00000
      5      -0.1902      2.00000
      6       1.2941      2.00000
      7       1.2945      2.00000
      8       2.1343      2.00000
      9       2.5486      2.00000
     10       3.5869      2.00000
     11       3.5872      2.00000
     12       6.5239      0.00000
     13       6.5242      0.00000
     14      10.5811      0.00000
     15      13.3019      0.00000
     16      13.8668      0.00000

 k-point   171 :       0.3333    0.3333    0.2632
  band No.  band energies     occupation 
      1      -7.7323      2.00000
      2      -7.7322      2.00000
      3      -0.5783      2.00000
      4      -0.2129      2.00000
      5      -0.2127      2.00000
      6       1.3102      2.00000
      7       1.3106      2.00000
      8       2.1260      2.00000
      9       2.4652      2.00000
     10       3.5404      2.00000
     11       3.5407      2.00000
     12       6.6600      0.00000
     13       6.6604      0.00000
     14      10.7521      0.00000
     15      13.3004      0.00000
     16      13.7174      0.00000

 k-point   172 :       0.3333    0.3333    0.2895
  band No.  band energies     occupation 
      1      -7.7308      2.00000
      2      -7.7307      2.00000
      3      -0.5380      2.00000
      4      -0.2346      2.00000
      5      -0.2344      2.00000
      6       1.3257      2.00000
      7       1.3261      2.00000
      8       2.1118      2.00000
      9       2.3885      2.00000
     10       3.4973      2.00000
     11       3.4976      2.00000
     12       6.7954      0.00000
     13       6.7958      0.00000
     14      10.9258      0.00000
     15      13.2955      0.00000
     16      13.5608      0.00000

 k-point   173 :       0.3333    0.3333    0.3158
  band No.  band energies     occupation 
      1      -7.7293      2.00000
      2      -7.7292      2.00000
      3      -0.4973      2.00000
      4      -0.2551      2.00000
      5      -0.2549      2.00000
      6       1.3401      2.00000
      7       1.3405      2.00000
      8       2.0879      2.00000
      9       2.3248      2.00000
     10       3.4581      2.00000
     11       3.4583      2.00000
     12       6.9270      0.00000
     13       6.9274      0.00000
     14      11.0982      0.00000
     15      13.2931      0.00000
     16      13.4036      0.00000

 k-point   174 :       0.3333    0.3333    0.3421
  band No.  band energies     occupation 
      1      -7.7279      2.00000
      2      -7.7278      2.00000
      3      -0.4575      2.00000
      4      -0.2737      2.00000
      5      -0.2735      2.00000
      6       1.3533      2.00000
      7       1.3538      2.00000
      8       2.0513      2.00000
      9       2.2790      2.00000
     10       3.4236      2.00000
     11       3.4237      2.00000
     12       7.0517      0.00000
     13       7.0521      0.00000
     14      11.2646      0.00000
     15      13.2515      0.00000
     16      13.2864      0.00000

 k-point   175 :       0.3333    0.3333    0.3684
  band No.  band energies     occupation 
      1      -7.7267      2.00000
      2      -7.7266      2.00000
      3      -0.4201      2.00000
      4      -0.2902      2.00000
      5      -0.2900      2.00000
      6       1.3650      2.00000
      7       1.3655      2.00000
      8       2.0045      2.00000
      9       2.2505      2.00000
     10       3.3937      2.00000
     11       3.3939      2.00000
     12       7.1659      0.00000
     13       7.1663      0.00000
     14      11.4200      0.00000
     15      13.1105      0.00000
     16      13.2619      0.00000

 k-point   176 :       0.3333    0.3333    0.3947
  band No.  band energies     occupation 
      1      -7.7256      2.00000
      2      -7.7256      2.00000
      3      -0.3863      2.00000
      4      -0.3042      2.00000
      5      -0.3040      2.00000
      6       1.3749      2.00000
      7       1.3754      2.00000
      8       1.9553      2.00000
      9       2.2343      2.00000
     10       3.3690      2.00000
     11       3.3692      2.00000
     12       7.2662      0.00000
     13       7.2665      0.00000
     14      11.5589      0.00000
     15      12.9860      0.00000
     16      13.2403      0.00000

 k-point   177 :       0.3333    0.3333    0.4211
  band No.  band energies     occupation 
      1      -7.7247      2.00000
      2      -7.7247      2.00000
      3      -0.3579      2.00000
      4      -0.3152      2.00000
      5      -0.3151      2.00000
      6       1.3830      2.00000
      7       1.3835      2.00000
      8       1.9109      2.00000
      9       2.2252      2.00000
     10       3.3497      2.00000
     11       3.3498      2.00000
     12       7.3491      0.00000
     13       7.3493      0.00000
     14      11.6754      0.00000
     15      12.8831      0.00000
     16      13.2119      0.00000

 k-point   178 :       0.3333    0.3333    0.4474
  band No.  band energies     occupation 
      1      -7.7241      2.00000
      2      -7.7241      2.00000
      3      -0.3363      2.00000
      4      -0.3234      2.00000
      5      -0.3232      2.00000
      6       1.3888      2.00000
      7       1.3893      2.00000
      8       1.8761      2.00000
      9       2.2201      2.00000
     10       3.3358      2.00000
     11       3.3359      2.00000
     12       7.4111      0.00000
     13       7.4112      0.00000
     14      11.7639      0.00000
     15      12.8060      0.00000
     16      13.1343      0.00000

 k-point   179 :       0.3333    0.3333    0.4737
  band No.  band energies     occupation 
      1      -7.7237      2.00000
      2      -7.7237      2.00000
      3      -0.3284      2.00000
      4      -0.3282      2.00000
      5      -0.3228      2.00000
      6       1.3922      2.00000
      7       1.3927      2.00000
      8       1.8541      2.00000
      9       2.2174      2.00000
     10       3.3273      2.00000
     11       3.3274      2.00000
     12       7.4495      0.00000
     13       7.4496      0.00000
     14      11.8193      0.00000
     15      12.7583      0.00000
     16      13.0229      0.00000

 k-point   180 :       0.3333    0.3333    0.5000
  band No.  band energies     occupation 
      1      -7.7236      2.00000
      2      -7.7236      2.00000
      3      -0.3300      2.00000
      4      -0.3299      2.00000
      5      -0.3182      2.00000
      6       1.3934      2.00000
      7       1.3939      2.00000
      8       1.8466      2.00000
      9       2.2166      2.00000
     10       3.3245      2.00000
     11       3.3245      2.00000
     12       7.4625      0.00000
     13       7.4626      0.00000
     14      11.8379      0.00000
     15      12.7422      0.00000
     16      12.7522      0.00000


--------------------------------------------------------------------------------------------------------


 soft charge-density along one line, spin component           1
         0         1         2         3         4         5         6         7         8         9
 total charge-density along one line
 
 pseudopotential strength for first ion, spin component:           1
 -5.901   0.000   0.000  -0.006  -0.000  -6.007   0.000   0.000
  0.000  -5.889   0.000  -0.000  -0.006   0.000  -5.996   0.000
  0.000   0.000  -5.878  -0.000  -0.000   0.000   0.000  -5.984
 -0.006  -0.000  -0.000  -5.889  -0.000  -0.006  -0.000  -0.000
 -0.000  -0.006  -0.000  -0.000  -5.901  -0.000  -0.006  -0.000
 -6.007   0.000   0.000  -0.006  -0.000  -6.097   0.000   0.000
  0.000  -5.996   0.000  -0.000  -0.006   0.000  -6.086   0.000
  0.000   0.000  -5.984  -0.000  -0.000   0.000   0.000  -6.075
 -0.006  -0.000  -0.000  -5.996  -0.000  -0.006  -0.000  -0.000
 -0.000  -0.006  -0.000  -0.000  -6.007  -0.000  -0.006  -0.000
  0.000  -0.000  -0.012  -0.000  -0.000   0.000  -0.000  -0.012
 -0.000   0.000   0.018   0.000   0.000  -0.000   0.000   0.017
 -0.000   0.000  -0.000  -0.000  -0.000  -0.000   0.000  -0.000
 -0.000   0.000   0.000  -0.000   0.000  -0.000   0.000   0.000
  0.000  -0.000   0.000   0.000  -0.000   0.000  -0.000   0.000
  0.000  -0.000   0.000   0.000   0.000   0.000  -0.000   0.000
  0.000  -0.000  -0.000   0.000  -0.000   0.000  -0.000  -0.000
 -0.000   0.000  -0.000  -0.000   0.000  -0.000   0.000  -0.000
  0.000  -0.000   0.000   0.000  -0.000   0.000  -0.000   0.000
 -0.000   0.000  -0.000  -0.000   0.000  -0.000   0.000  -0.000
 -0.000  -0.000  -0.000  -0.000  -0.000  -0.000  -0.000  -0.000
 -0.000   0.000  -0.000  -0.000   0.000  -0.000   0.000  -0.000
  0.000  -0.000   0.000  -0.000  -0.000   0.000  -0.000   0.000
  0.000   0.000   0.000   0.000  -0.000   0.000   0.000   0.000
  0.000  -0.000  -0.000   0.000   0.000   0.000  -0.000  -0.000
 total augmentation occupancy for first ion, spin component:           1
  1.800   0.000   0.000   0.000   0.000   0.000   0.000   0.000   0.000   0.000   0.000   0.000   0.000   0.000   0.000   0.000
  0.000   1.800   0.000   0.000   0.000   0.000   0.000   0.000   0.000   0.000   0.000   0.000   0.000   0.000   0.000   0.000
  0.000   0.000   1.800   0.000   0.000   0.000   0.000   0.000   0.000   0.000   0.000   0.000   0.000   0.000   0.000   0.000
  0.000   0.000   0.000   1.800   0.000   0.000   0.000   0.000   0.000   0.000   0.000   0.000   0.000   0.000   0.000   0.000
  0.000   0.000   0.000   0.000   1.800   0.000   0.000   0.000   0.000   0.000   0.000   0.000   0.000   0.000   0.000   0.000
  0.000   0.000   0.000   0.000   0.000   0.000   0.000   0.000   0.000   0.000   0.000   0.000   0.000   0.000   0.000   0.000
  0.000   0.000   0.000   0.000   0.000   0.000   0.000   0.000   0.000   0.000   0.000   0.000   0.000   0.000   0.000   0.000
  0.000   0.000   0.000   0.000   0.000   0.000   0.000   0.000   0.000   0.000   0.000   0.000   0.000   0.000   0.000   0.000
  0.000   0.000   0.000   0.000   0.000   0.000   0.000   0.000   0.000   0.000   0.000   0.000   0.000   0.000   0.000   0.000
  0.000   0.000   0.000   0.000   0.000   0.000   0.000   0.000   0.000   0.000   0.000   0.000   0.000   0.000   0.000   0.000
  0.000   0.000   0.000   0.000   0.000   0.000   0.000   0.000   0.000   0.000   1.000   0.000   0.000   0.000   0.000   0.000
  0.000   0.000   0.000   0.000   0.000   0.000   0.000   0.000   0.000   0.000   0.000   0.000   0.000   0.000   0.000   0.000
  0.000   0.000   0.000   0.000   0.000   0.000   0.000   0.000   0.000   0.000   0.000   0.000   0.000   0.000   0.000   0.000
  0.000   0.000   0.000   0.000   0.000   0.000   0.000   0.000   0.000   0.000   0.000   0.000   0.000   0.000   0.000   0.000
  0.000   0.000   0.000   0.000   0.000   0.000   0.000   0.000   0.000   0.000   0.000   0.000   0.000   0.000   0.000   0.000
  0.000   0.000   0.000   0.000   0.000   0.000   0.000   0.000   0.000   0.000   0.000   0.000   0.000   0.000   0.000   0.000
  0.000   0.000   0.000   0.000   0.000   0.000   0.000   0.000   0.000   0.000   0.000   0.000   0.000   0.000   0.000   0.000
  0.000   0.000   0.000   0.000   0.000   0.000   0.000   0.000   0.000   0.000   0.000   0.000   0.000   0.000   0.000   0.000
  0.000   0.000   0.000   0.000   0.000   0.000   0.000   0.000   0.000   0.000   0.000   0.000   0.000   0.000   0.000   0.000
  0.000   0.000   0.000   0.000   0.000   0.000   0.000   0.000   0.000   0.000   0.000   0.000   0.000   0.000   0.000   0.000
  0.000   0.000   0.000   0.000   0.000   0.000   0.000   0.000   0.000   0.000   0.000   0.000   0.000   0.000   0.000   0.000
  0.000   0.000   0.000   0.000   0.000   0.000   0.000   0.000   0.000   0.000   0.000   0.000   0.000   0.000   0.000   0.000
  0.000   0.000   0.000   0.000   0.000   0.000   0.000   0.000   0.000   0.000   0.000   0.000   0.000   0.000   0.000   0.000
  0.000   0.000   0.000   0.000   0.000   0.000   0.000   0.000   0.000   0.000   0.000   0.000   0.000   0.000   0.000   0.000
  0.000   0.000   0.000   0.000   0.000   0.000   0.000   0.000   0.000   0.000   0.000   0.000   0.000   0.000   0.000   0.000


------------------------ aborting loop because EDIFF is reached ----------------------------------------


 


 total charge     
 
# of ion       s       p       d       f       tot
--------------------------------------------------
    1        0.651   0.626   7.943   0.059   9.278
    2        1.479   2.204   0.059   0.000   3.742
    3        1.479   2.204   0.059   0.000   3.742
--------------------------------------------------
tot          3.608   5.035   8.061   0.059  16.763

 
    CHARGE:  cpu time    0.0324: real time    0.0324
    FORLOC:  cpu time    0.0002: real time    0.0002
    FORNL :  cpu time    0.1925: real time    0.1925
    STRESS:  cpu time    0.5766: real time    0.5769
    FORCOR:  cpu time    0.0031: real time    0.0031
    FORHAR:  cpu time    0.0009: real time    0.0009
    OFIELD:  cpu time    0.0000: real time    0.0000

  FORCE on cell =-STRESS in cart. coord.  units (eV):
  Direction    XX          YY          ZZ          XY          YZ          ZX
  --------------------------------------------------------------------------------------
  Alpha Z    72.03602    72.03602    72.03602
  Ewald    -270.35105  -270.31394  -597.34729     0.00000    -0.02149    -0.00000
  Hartree   154.67058   154.67167   -61.24321     0.00000     0.00141    -0.00000
  E(xc)     -97.08852   -97.08794   -97.52846    -0.00000    -0.00015     0.00000
  Local    -303.03389  -303.04016   232.69410    -0.00000     0.00581     0.00000
  n-local    92.43587    88.20468    89.97391    -2.62186    -1.39537     1.77437
  augment    52.85768    52.85419    54.08321     0.00000     0.00097     0.00000
  Kinetic   301.87529   300.27326   307.31367    -1.01063    -2.18644     2.41419
  Fock        0.00000     0.00000     0.00000     0.00000     0.00000     0.00000
  -------------------------------------------------------------------------------------
  Total       0.49979     0.49975    -0.01792     0.00000     0.00001     0.00000
  in kB      12.35311    12.35190    -0.44293     0.00000     0.00021     0.00000
  external pressure =        8.09 kB  Pullay stress =        0.00 kB


 VOLUME and BASIS-vectors are now :
 -----------------------------------------------------------------------------
  energy-cutoff  :      350.00
  volume of cell :       64.82
      direct lattice vectors                 reciprocal lattice vectors
     1.885818112 -3.266173431 -0.000057044     0.265136917 -0.153084339  0.000001566
     1.885818112  3.266173431  0.000057044     0.265136917  0.153084339 -0.000001566
     0.000000000  0.000053843  5.262073579     0.000000000 -0.000003319  0.190039152

  length of vectors
     3.771498221  3.771498221  5.262073579     0.306157475  0.306157475  0.190039152


 FORCES acting on ions
    electron-ion (+dipol)            ewald-force                    non-local-force                 convergence-correction
 -----------------------------------------------------------------------------------------------
   0.265E-13 0.439E-14 -.194E-13   -.319E-14 -.170E-15 0.000E+00   0.424E-21 0.587E-21 0.000E+00   0.110E-10 -.603E-11 0.152E-12
   -.108E-05 0.615E-02 -.139E+03   0.327E-14 -.115E-01 0.142E+03   -.813E-18 -.360E-04 -.352E+01   0.256E-09 -.364E-03 0.161E+00
   0.108E-05 -.615E-02 0.139E+03   0.108E-15 0.115E-01 -.142E+03   0.542E-19 0.360E-04 0.352E+01   -.257E-09 0.364E-03 -.161E+00
 -----------------------------------------------------------------------------------------------
   0.901E-13 0.629E-14 -.422E-13   0.189E-15 0.486E-15 0.000E+00   -.759E-18 0.454E-18 -.888E-15   0.982E-11 -.557E-11 0.693E-12
 
 
 POSITION                                       TOTAL-FORCE (eV/Angst)
 -----------------------------------------------------------------------------------
      0.00000      0.00000      0.00000        -0.000000     -0.000000      0.000000
      1.88582      1.08874      1.29961         0.000000     -0.000003     -0.278575
      1.88582     -1.08869      3.96246         0.000000      0.000003      0.278575
 -----------------------------------------------------------------------------------
    total drift:                                0.000000     -0.000000      0.000000


--------------------------------------------------------------------------------------------------------



  FREE ENERGIE OF THE ION-ELECTRON SYSTEM (eV)
  ---------------------------------------------------
  free  energy   TOTEN  =       -14.11286081 eV

  energy  without entropy=      -14.10396568  energy(sigma->0) =      -14.10841324
 


--------------------------------------------------------------------------------------------------------


    POTLOK:  cpu time    0.0069: real time    0.0069


--------------------------------------------------------------------------------------------------------


 writing wavefunctions
     LOOP+:  cpu time    7.5035: real time    7.5131
    4ORBIT:  cpu time    0.0000: real time    0.0000
 


 total charge     
 
# of ion       s       p       d       f       tot
--------------------------------------------------
    1        0.651   0.626   7.943   0.059   9.278
    2        1.479   2.204   0.059   0.000   3.742
    3        1.479   2.204   0.059   0.000   3.742
--------------------------------------------------
tot          3.608   5.035   8.061   0.059  16.763

 

 total amount of memory used by VASP MPI-rank0    32971. kBytes
=======================================================================

   base      :      30000. kBytes
   nonlr-proj:        276. kBytes
   fftplans  :        156. kBytes
   grid      :        252. kBytes
   one-center:         30. kBytes
   wavefun   :       2257. kBytes
 
  
  
 General timing and accounting informations for this job:
 ========================================================
  
                  Total CPU time used (sec):        9.314
                            User time (sec):        8.801
                          System time (sec):        0.513
                         Elapsed time (sec):        9.322
  
                   Maximum memory used (kb):       56216.
                   Average memory used (kb):           0.
  
                          Minor page faults:        21193
                          Major page faults:            0
                 Voluntary context switches:          134
