PROCAR lm decomposed
# of k-points:  180         # of bands:   16         # of ions:    3

 k-point     1 :    0.00000000 0.00000000 0.00000000     weight = 0.00555556

band     1 # energy   -9.53811582 # occ.  2.00000000
 
ion      s     py     pz     px    dxy    dyz    dz2    dxz  x2-y2  fy3x2   fxyz   fyz2    fz3   fxz2   fzx2    fx3    tot
    1  0.103  0.000  0.000  0.000  0.000  0.000  0.003  0.000  0.000  0.000  0.000  0.000  0.000  0.000  0.000  0.000  0.106
    2  0.285  0.000  0.003  0.000  0.000  0.000  0.000  0.000  0.000  0.000  0.000  0.000  0.000  0.000  0.000  0.000  0.287
    3  0.285  0.000  0.003  0.000  0.000  0.000  0.000  0.000  0.000  0.000  0.000  0.000  0.000  0.000  0.000  0.000  0.287
tot    0.673  0.000  0.005  0.000  0.000  0.000  0.003  0.000  0.000  0.000  0.000  0.000  0.000  0.000  0.000  0.000  0.681

 
band     2 # energy   -7.13531378 # occ.  2.00000000
 
ion      s     py     pz     px    dxy    dyz    dz2    dxz  x2-y2  fy3x2   fxyz   fyz2    fz3   fxz2   fzx2    fx3    tot
    1  0.000  0.000  0.035  0.000  0.000  0.000  0.000  0.000  0.000  0.002  0.000  0.000  0.002  0.000  0.000  0.000  0.039
    2  0.376  0.000  0.001  0.000  0.000  0.000  0.000  0.000  0.000  0.000  0.000  0.000  0.000  0.000  0.000  0.000  0.377
    3  0.376  0.000  0.001  0.000  0.000  0.000  0.000  0.000  0.000  0.000  0.000  0.000  0.000  0.000  0.000  0.000  0.377
tot    0.752  0.000  0.036  0.000  0.000  0.000  0.001  0.000  0.000  0.002  0.000  0.000  0.002  0.000  0.000  0.000  0.793

 
band     3 # energy   -1.06196023 # occ.  2.00000000
 
ion      s     py     pz     px    dxy    dyz    dz2    dxz  x2-y2  fy3x2   fxyz   fyz2    fz3   fxz2   fzx2    fx3    tot
    1  0.064  0.000  0.000  0.000  0.000  0.000  0.240  0.000  0.000  0.000  0.000  0.000  0.000  0.000  0.000  0.000  0.304
    2  0.013  0.000  0.130  0.000  0.000  0.000  0.001  0.000  0.000  0.000  0.000  0.000  0.000  0.000  0.000  0.000  0.144
    3  0.013  0.000  0.130  0.000  0.000  0.000  0.001  0.000  0.000  0.000  0.000  0.000  0.000  0.000  0.000  0.000  0.144
tot    0.090  0.000  0.260  0.000  0.000  0.000  0.241  0.000  0.000  0.000  0.000  0.000  0.000  0.000  0.000  0.000  0.591

 
band     4 # energy   -0.35303863 # occ.  2.00000000
 
ion      s     py     pz     px    dxy    dyz    dz2    dxz  x2-y2  fy3x2   fxyz   fyz2    fz3   fxz2   fzx2    fx3    tot
    1  0.000  0.000  0.000  0.000  0.000  0.162  0.000  0.000  0.468  0.000  0.000  0.000  0.000  0.000  0.000  0.000  0.630
    2  0.000  0.098  0.000  0.000  0.000  0.005  0.000  0.000  0.000  0.000  0.000  0.000  0.000  0.000  0.000  0.000  0.104
    3  0.000  0.098  0.000  0.000  0.000  0.005  0.000  0.000  0.000  0.000  0.000  0.000  0.000  0.000  0.000  0.000  0.104
tot    0.000  0.196  0.000  0.000  0.000  0.172  0.000  0.000  0.469  0.000  0.000  0.000  0.000  0.000  0.000  0.000  0.838

 
band     5 # energy   -0.35264021 # occ.  2.00000000
 
ion      s     py     pz     px    dxy    dyz    dz2    dxz  x2-y2  fy3x2   fxyz   fyz2    fz3   fxz2   fzx2    fx3    tot
    1  0.000  0.000  0.000  0.000  0.469  0.000  0.000  0.162  0.000  0.000  0.000  0.000  0.000  0.000  0.000  0.000  0.630
    2  0.000  0.000  0.000  0.098  0.000  0.000  0.000  0.005  0.000  0.000  0.000  0.000  0.000  0.000  0.000  0.000  0.104
    3  0.000  0.000  0.000  0.098  0.000  0.000  0.000  0.005  0.000  0.000  0.000  0.000  0.000  0.000  0.000  0.000  0.104
tot    0.000  0.000  0.000  0.196  0.469  0.000  0.000  0.172  0.000  0.000  0.000  0.000  0.000  0.000  0.000  0.000  0.838

 
band     6 # energy    1.90724839 # occ.  2.00000000
 
ion      s     py     pz     px    dxy    dyz    dz2    dxz  x2-y2  fy3x2   fxyz   fyz2    fz3   fxz2   fzx2    fx3    tot
    1  0.000  0.000  0.000  0.000  0.221  0.000  0.000  0.667  0.000  0.000  0.000  0.000  0.000  0.000  0.000  0.000  0.888
    2  0.000  0.000  0.000  0.001  0.007  0.000  0.000  0.000  0.000  0.000  0.000  0.000  0.000  0.000  0.000  0.000  0.008
    3  0.000  0.000  0.000  0.001  0.007  0.000  0.000  0.000  0.000  0.000  0.000  0.000  0.000  0.000  0.000  0.000  0.008
tot    0.000  0.000  0.000  0.002  0.234  0.000  0.000  0.667  0.000  0.000  0.000  0.000  0.000  0.000  0.000  0.000  0.903

 
band     7 # energy    1.90734305 # occ.  2.00000000
 
ion      s     py     pz     px    dxy    dyz    dz2    dxz  x2-y2  fy3x2   fxyz   fyz2    fz3   fxz2   fzx2    fx3    tot
    1  0.000  0.000  0.000  0.000  0.000  0.667  0.000  0.000  0.221  0.000  0.000  0.000  0.000  0.000  0.000  0.000  0.888
    2  0.000  0.001  0.000  0.000  0.000  0.000  0.000  0.000  0.007  0.000  0.000  0.000  0.000  0.000  0.000  0.000  0.008
    3  0.000  0.001  0.000  0.000  0.000  0.000  0.000  0.000  0.007  0.000  0.000  0.000  0.000  0.000  0.000  0.000  0.008
tot    0.000  0.002  0.000  0.000  0.000  0.667  0.000  0.000  0.235  0.000  0.000  0.000  0.000  0.000  0.000  0.000  0.903

 
band     8 # energy    3.18505679 # occ.  2.00000000
 
ion      s     py     pz     px    dxy    dyz    dz2    dxz  x2-y2  fy3x2   fxyz   fyz2    fz3   fxz2   fzx2    fx3    tot
    1  0.103  0.000  0.000  0.000  0.000  0.000  0.629  0.000  0.000  0.000  0.000  0.000  0.000  0.000  0.000  0.000  0.733
    2  0.009  0.000  0.045  0.000  0.000  0.000  0.004  0.000  0.000  0.000  0.000  0.000  0.000  0.000  0.000  0.000  0.057
    3  0.009  0.000  0.045  0.000  0.000  0.000  0.004  0.000  0.000  0.000  0.000  0.000  0.000  0.000  0.000  0.000  0.057
tot    0.121  0.000  0.090  0.000  0.000  0.000  0.636  0.000  0.000  0.000  0.000  0.000  0.000  0.000  0.000  0.000  0.847

 
band     9 # energy    4.68698802 # occ.  2.00000000
 
ion      s     py     pz     px    dxy    dyz    dz2    dxz  x2-y2  fy3x2   fxyz   fyz2    fz3   fxz2   fzx2    fx3    tot
    1  0.000  0.076  0.000  0.000  0.000  0.000  0.000  0.000  0.000  0.000  0.000  0.003  0.000  0.000  0.019  0.000  0.098
    2  0.000  0.315  0.000  0.000  0.000  0.001  0.000  0.000  0.002  0.000  0.000  0.000  0.000  0.000  0.000  0.000  0.317
    3  0.000  0.315  0.000  0.000  0.000  0.001  0.000  0.000  0.002  0.000  0.000  0.000  0.000  0.000  0.000  0.000  0.317
tot    0.000  0.705  0.000  0.000  0.000  0.001  0.000  0.000  0.003  0.000  0.000  0.003  0.000  0.000  0.019  0.000  0.731

 
band    10 # energy    4.68731224 # occ.  2.00000000
 
ion      s     py     pz     px    dxy    dyz    dz2    dxz  x2-y2  fy3x2   fxyz   fyz2    fz3   fxz2   fzx2    fx3    tot
    1  0.000  0.000  0.000  0.076  0.000  0.000  0.000  0.000  0.000  0.000  0.019  0.000  0.000  0.003  0.000  0.000  0.097
    2  0.000  0.000  0.000  0.315  0.002  0.000  0.000  0.001  0.000  0.000  0.000  0.000  0.000  0.000  0.000  0.000  0.317
    3  0.000  0.000  0.000  0.315  0.002  0.000  0.000  0.001  0.000  0.000  0.000  0.000  0.000  0.000  0.000  0.000  0.317
tot    0.000  0.000  0.000  0.705  0.003  0.000  0.000  0.001  0.000  0.000  0.019  0.000  0.000  0.003  0.000  0.000  0.731

 
band    11 # energy    5.93301793 # occ.  0.01280482
 
ion      s     py     pz     px    dxy    dyz    dz2    dxz  x2-y2  fy3x2   fxyz   fyz2    fz3   fxz2   fzx2    fx3    tot
    1  0.000  0.000  0.004  0.000  0.000  0.000  0.000  0.000  0.000  0.020  0.000  0.000  0.007  0.000  0.000  0.000  0.031
    2  0.000  0.000  0.348  0.000  0.000  0.000  0.001  0.000  0.000  0.000  0.000  0.000  0.000  0.000  0.000  0.000  0.349
    3  0.000  0.000  0.348  0.000  0.000  0.000  0.001  0.000  0.000  0.000  0.000  0.000  0.000  0.000  0.000  0.000  0.349
tot    0.000  0.000  0.700  0.000  0.000  0.000  0.002  0.000  0.000  0.020  0.000  0.000  0.007  0.000  0.000  0.000  0.729

 
band    12 # energy    7.14986430 # occ.  0.00000000
 
ion      s     py     pz     px    dxy    dyz    dz2    dxz  x2-y2  fy3x2   fxyz   fyz2    fz3   fxz2   fzx2    fx3    tot
    1  0.000  0.000  0.000  0.000  0.238  0.000  0.000  0.079  0.000  0.000  0.000  0.000  0.000  0.000  0.000  0.000  0.317
    2  0.000  0.000  0.000  0.212  0.003  0.000  0.000  0.007  0.000  0.000  0.000  0.000  0.000  0.000  0.000  0.000  0.222
    3  0.000  0.000  0.000  0.212  0.003  0.000  0.000  0.007  0.000  0.000  0.000  0.000  0.000  0.000  0.000  0.000  0.222
tot    0.000  0.000  0.000  0.425  0.245  0.000  0.000  0.092  0.000  0.000  0.000  0.000  0.000  0.000  0.000  0.000  0.761

 
band    13 # energy    7.14993664 # occ.  0.00000000
 
ion      s     py     pz     px    dxy    dyz    dz2    dxz  x2-y2  fy3x2   fxyz   fyz2    fz3   fxz2   fzx2    fx3    tot
    1  0.000  0.000  0.000  0.000  0.000  0.079  0.000  0.000  0.238  0.000  0.000  0.000  0.000  0.000  0.000  0.000  0.317
    2  0.000  0.212  0.000  0.000  0.000  0.007  0.000  0.000  0.003  0.000  0.000  0.000  0.000  0.000  0.000  0.000  0.222
    3  0.000  0.212  0.000  0.000  0.000  0.007  0.000  0.000  0.003  0.000  0.000  0.000  0.000  0.000  0.000  0.000  0.222
tot    0.000  0.425  0.000  0.000  0.000  0.092  0.000  0.000  0.245  0.000  0.000  0.000  0.000  0.000  0.000  0.000  0.761

 
band    14 # energy    9.51034521 # occ.  0.00000000
 
ion      s     py     pz     px    dxy    dyz    dz2    dxz  x2-y2  fy3x2   fxyz   fyz2    fz3   fxz2   fzx2    fx3    tot
    1  0.247  0.000  0.000  0.000  0.000  0.000  0.044  0.000  0.000  0.000  0.000  0.000  0.000  0.000  0.000  0.000  0.291
    2  0.154  0.000  0.021  0.000  0.000  0.000  0.000  0.000  0.000  0.000  0.000  0.000  0.000  0.000  0.000  0.000  0.176
    3  0.154  0.000  0.021  0.000  0.000  0.000  0.000  0.000  0.000  0.000  0.000  0.000  0.000  0.000  0.000  0.000  0.176
tot    0.556  0.000  0.042  0.000  0.000  0.000  0.045  0.000  0.000  0.000  0.000  0.000  0.000  0.000  0.000  0.000  0.643

 
band    15 # energy    9.52791791 # occ.  0.00000000
 
ion      s     py     pz     px    dxy    dyz    dz2    dxz  x2-y2  fy3x2   fxyz   fyz2    fz3   fxz2   fzx2    fx3    tot
    1  0.000  0.000  0.154  0.000  0.000  0.000  0.000  0.000  0.000  0.017  0.000  0.000  0.000  0.000  0.000  0.000  0.171
    2  0.041  0.000  0.007  0.000  0.000  0.000  0.049  0.000  0.000  0.000  0.000  0.000  0.000  0.000  0.000  0.000  0.096
    3  0.041  0.000  0.007  0.000  0.000  0.000  0.049  0.000  0.000  0.000  0.000  0.000  0.000  0.000  0.000  0.000  0.096
tot    0.082  0.000  0.167  0.000  0.000  0.000  0.097  0.000  0.000  0.017  0.000  0.000  0.000  0.000  0.000  0.000  0.364

 
band    16 # energy   13.01952226 # occ.  0.00000000
 
ion      s     py     pz     px    dxy    dyz    dz2    dxz  x2-y2  fy3x2   fxyz   fyz2    fz3   fxz2   fzx2    fx3    tot
    1  0.000  0.067  0.000  0.213  0.000  0.000  0.000  0.000  0.000  0.000  0.013  0.002  0.000  0.006  0.004  0.000  0.305
    2  0.000  0.005  0.000  0.015  0.068  0.000  0.000  0.001  0.021  0.000  0.000  0.000  0.000  0.000  0.000  0.000  0.110
    3  0.000  0.005  0.000  0.015  0.068  0.000  0.000  0.001  0.021  0.000  0.000  0.000  0.000  0.000  0.000  0.000  0.110
tot    0.000  0.076  0.000  0.243  0.135  0.001  0.000  0.002  0.042  0.000  0.013  0.002  0.000  0.006  0.004  0.000  0.525

 

 k-point     2 :    0.02631579 0.00000000 0.00000000     weight = 0.00555556

band     1 # energy   -9.53087388 # occ.  2.00000000
 
ion      s     py     pz     px    dxy    dyz    dz2    dxz  x2-y2  fy3x2   fxyz   fyz2    fz3   fxz2   fzx2    fx3    tot
    1  0.103  0.000  0.000  0.000  0.000  0.000  0.003  0.000  0.000  0.000  0.000  0.000  0.000  0.000  0.000  0.000  0.106
    2  0.285  0.000  0.003  0.000  0.000  0.000  0.000  0.000  0.000  0.000  0.000  0.000  0.000  0.000  0.000  0.000  0.288
    3  0.285  0.000  0.003  0.000  0.000  0.000  0.000  0.000  0.000  0.000  0.000  0.000  0.000  0.000  0.000  0.000  0.288
tot    0.673  0.000  0.005  0.000  0.000  0.000  0.003  0.000  0.000  0.000  0.000  0.000  0.000  0.000  0.000  0.000  0.682

 
band     2 # energy   -7.13774813 # occ.  2.00000000
 
ion      s     py     pz     px    dxy    dyz    dz2    dxz  x2-y2  fy3x2   fxyz   fyz2    fz3   fxz2   fzx2    fx3    tot
    1  0.000  0.000  0.035  0.000  0.000  0.000  0.000  0.000  0.000  0.002  0.000  0.000  0.002  0.000  0.000  0.000  0.039
    2  0.376  0.000  0.001  0.000  0.000  0.000  0.000  0.000  0.000  0.000  0.000  0.000  0.000  0.000  0.000  0.000  0.377
    3  0.376  0.000  0.001  0.000  0.000  0.000  0.000  0.000  0.000  0.000  0.000  0.000  0.000  0.000  0.000  0.000  0.377
tot    0.752  0.000  0.036  0.000  0.000  0.000  0.001  0.000  0.000  0.002  0.000  0.000  0.002  0.000  0.000  0.000  0.793

 
band     3 # energy   -1.05309878 # occ.  2.00000000
 
ion      s     py     pz     px    dxy    dyz    dz2    dxz  x2-y2  fy3x2   fxyz   fyz2    fz3   fxz2   fzx2    fx3    tot
    1  0.064  0.000  0.000  0.000  0.000  0.000  0.240  0.000  0.000  0.000  0.000  0.000  0.000  0.000  0.000  0.000  0.304
    2  0.013  0.000  0.130  0.000  0.000  0.000  0.001  0.000  0.000  0.000  0.000  0.000  0.000  0.000  0.000  0.000  0.144
    3  0.013  0.000  0.130  0.000  0.000  0.000  0.001  0.000  0.000  0.000  0.000  0.000  0.000  0.000  0.000  0.000  0.144
tot    0.090  0.000  0.260  0.000  0.000  0.000  0.241  0.000  0.000  0.000  0.000  0.000  0.000  0.000  0.000  0.000  0.592

 
band     4 # energy   -0.34880432 # occ.  2.00000000
 
ion      s     py     pz     px    dxy    dyz    dz2    dxz  x2-y2  fy3x2   fxyz   fyz2    fz3   fxz2   fzx2    fx3    tot
    1  0.000  0.000  0.000  0.000  0.233  0.081  0.000  0.079  0.235  0.000  0.000  0.000  0.000  0.000  0.000  0.000  0.629
    2  0.000  0.049  0.000  0.049  0.000  0.003  0.000  0.003  0.000  0.000  0.000  0.000  0.000  0.000  0.000  0.000  0.104
    3  0.000  0.049  0.000  0.049  0.000  0.003  0.000  0.003  0.000  0.000  0.000  0.000  0.000  0.000  0.000  0.000  0.104
tot    0.000  0.099  0.001  0.098  0.234  0.086  0.000  0.084  0.236  0.000  0.000  0.000  0.000  0.000  0.000  0.000  0.837

 
band     5 # energy   -0.34812326 # occ.  2.00000000
 
ion      s     py     pz     px    dxy    dyz    dz2    dxz  x2-y2  fy3x2   fxyz   fyz2    fz3   fxz2   fzx2    fx3    tot
    1  0.000  0.000  0.000  0.000  0.235  0.081  0.000  0.081  0.232  0.000  0.000  0.000  0.000  0.000  0.000  0.000  0.630
    2  0.000  0.049  0.000  0.049  0.000  0.003  0.000  0.003  0.000  0.000  0.000  0.000  0.000  0.000  0.000  0.000  0.104
    3  0.000  0.049  0.000  0.049  0.000  0.003  0.000  0.003  0.000  0.000  0.000  0.000  0.000  0.000  0.000  0.000  0.104
tot    0.000  0.098  0.000  0.099  0.236  0.087  0.000  0.087  0.233  0.000  0.000  0.000  0.000  0.000  0.000  0.000  0.838

 
band     6 # energy    1.89826615 # occ.  2.00000000
 
ion      s     py     pz     px    dxy    dyz    dz2    dxz  x2-y2  fy3x2   fxyz   fyz2    fz3   fxz2   fzx2    fx3    tot
    1  0.000  0.000  0.000  0.000  0.165  0.160  0.000  0.507  0.052  0.000  0.000  0.000  0.000  0.000  0.000  0.000  0.884
    2  0.000  0.000  0.000  0.001  0.005  0.000  0.000  0.000  0.002  0.000  0.000  0.000  0.000  0.000  0.000  0.000  0.009
    3  0.000  0.000  0.000  0.001  0.005  0.000  0.000  0.000  0.002  0.000  0.000  0.000  0.000  0.000  0.000  0.000  0.009
tot    0.000  0.001  0.000  0.003  0.176  0.160  0.000  0.507  0.055  0.000  0.000  0.000  0.000  0.000  0.000  0.000  0.902

 
band     7 # energy    1.90167081 # occ.  2.00000000
 
ion      s     py     pz     px    dxy    dyz    dz2    dxz  x2-y2  fy3x2   fxyz   fyz2    fz3   fxz2   fzx2    fx3    tot
    1  0.000  0.000  0.000  0.000  0.053  0.505  0.000  0.159  0.168  0.000  0.000  0.000  0.000  0.000  0.000  0.000  0.885
    2  0.000  0.001  0.000  0.000  0.002  0.000  0.000  0.000  0.005  0.000  0.000  0.000  0.000  0.000  0.000  0.000  0.009
    3  0.000  0.001  0.000  0.000  0.002  0.000  0.000  0.000  0.005  0.000  0.000  0.000  0.000  0.000  0.000  0.000  0.009
tot    0.000  0.003  0.000  0.001  0.056  0.505  0.000  0.159  0.179  0.000  0.000  0.000  0.000  0.000  0.000  0.000  0.902

 
band     8 # energy    3.17101858 # occ.  2.00000000
 
ion      s     py     pz     px    dxy    dyz    dz2    dxz  x2-y2  fy3x2   fxyz   fyz2    fz3   fxz2   fzx2    fx3    tot
    1  0.105  0.000  0.000  0.000  0.000  0.000  0.622  0.000  0.000  0.000  0.000  0.000  0.000  0.000  0.000  0.000  0.727
    2  0.009  0.001  0.044  0.002  0.000  0.000  0.003  0.000  0.000  0.000  0.000  0.000  0.000  0.000  0.000  0.000  0.059
    3  0.009  0.001  0.044  0.002  0.000  0.000  0.003  0.000  0.000  0.000  0.000  0.000  0.000  0.000  0.000  0.000  0.059
tot    0.123  0.001  0.088  0.004  0.000  0.000  0.629  0.000  0.000  0.000  0.000  0.000  0.000  0.000  0.000  0.000  0.846

 
band     9 # energy    4.65439998 # occ.  2.00000000
 
ion      s     py     pz     px    dxy    dyz    dz2    dxz  x2-y2  fy3x2   fxyz   fyz2    fz3   fxz2   fzx2    fx3    tot
    1  0.001  0.019  0.000  0.056  0.003  0.000  0.009  0.001  0.001  0.000  0.014  0.001  0.000  0.002  0.005  0.000  0.110
    2  0.001  0.078  0.001  0.228  0.001  0.000  0.000  0.000  0.000  0.000  0.000  0.000  0.000  0.000  0.000  0.000  0.311
    3  0.001  0.078  0.001  0.228  0.001  0.000  0.000  0.000  0.000  0.000  0.000  0.000  0.000  0.000  0.000  0.000  0.311
tot    0.002  0.175  0.003  0.513  0.005  0.001  0.009  0.002  0.002  0.000  0.014  0.001  0.000  0.002  0.005  0.000  0.731

 
band    10 # energy    4.68204393 # occ.  2.00000000
 
ion      s     py     pz     px    dxy    dyz    dz2    dxz  x2-y2  fy3x2   fxyz   fyz2    fz3   fxz2   fzx2    fx3    tot
    1  0.000  0.057  0.000  0.019  0.001  0.001  0.000  0.000  0.003  0.000  0.005  0.002  0.000  0.001  0.014  0.000  0.102
    2  0.000  0.233  0.000  0.080  0.000  0.000  0.000  0.000  0.001  0.000  0.000  0.000  0.000  0.000  0.000  0.000  0.315
    3  0.000  0.233  0.000  0.080  0.000  0.000  0.000  0.000  0.001  0.000  0.000  0.000  0.000  0.000  0.000  0.000  0.315
tot    0.000  0.523  0.000  0.178  0.002  0.002  0.000  0.001  0.005  0.000  0.005  0.002  0.000  0.001  0.014  0.000  0.732

 
band    11 # energy    5.92045057 # occ.  0.02080951
 
ion      s     py     pz     px    dxy    dyz    dz2    dxz  x2-y2  fy3x2   fxyz   fyz2    fz3   fxz2   fzx2    fx3    tot
    1  0.000  0.000  0.005  0.000  0.000  0.000  0.000  0.001  0.000  0.019  0.000  0.000  0.007  0.000  0.000  0.000  0.033
    2  0.000  0.001  0.343  0.003  0.000  0.000  0.001  0.000  0.000  0.000  0.000  0.000  0.000  0.000  0.000  0.000  0.349
    3  0.000  0.001  0.343  0.003  0.000  0.000  0.001  0.000  0.000  0.000  0.000  0.000  0.000  0.000  0.000  0.000  0.349
tot    0.000  0.002  0.692  0.006  0.001  0.000  0.002  0.001  0.000  0.019  0.000  0.000  0.007  0.000  0.000  0.000  0.730

 
band    12 # energy    7.12164430 # occ.  0.00000000
 
ion      s     py     pz     px    dxy    dyz    dz2    dxz  x2-y2  fy3x2   fxyz   fyz2    fz3   fxz2   fzx2    fx3    tot
    1  0.000  0.000  0.002  0.000  0.176  0.019  0.000  0.058  0.058  0.001  0.000  0.000  0.000  0.000  0.000  0.000  0.316
    2  0.001  0.051  0.004  0.153  0.002  0.002  0.001  0.005  0.001  0.000  0.000  0.000  0.000  0.000  0.000  0.000  0.219
    3  0.001  0.051  0.004  0.153  0.002  0.002  0.001  0.005  0.001  0.000  0.000  0.000  0.000  0.000  0.000  0.000  0.219
tot    0.002  0.102  0.009  0.306  0.181  0.022  0.002  0.068  0.060  0.001  0.000  0.000  0.000  0.000  0.000  0.000  0.754

 
band    13 # energy    7.14896440 # occ.  0.00000000
 
ion      s     py     pz     px    dxy    dyz    dz2    dxz  x2-y2  fy3x2   fxyz   fyz2    fz3   fxz2   fzx2    fx3    tot
    1  0.000  0.000  0.000  0.000  0.059  0.060  0.000  0.020  0.176  0.000  0.000  0.000  0.000  0.000  0.000  0.000  0.316
    2  0.000  0.160  0.000  0.053  0.001  0.005  0.000  0.002  0.003  0.000  0.000  0.000  0.000  0.000  0.000  0.000  0.223
    3  0.000  0.160  0.000  0.053  0.001  0.005  0.000  0.002  0.003  0.000  0.000  0.000  0.000  0.000  0.000  0.000  0.223
tot    0.000  0.320  0.000  0.106  0.060  0.070  0.000  0.023  0.182  0.000  0.000  0.000  0.000  0.000  0.000  0.000  0.761

 
band    14 # energy    9.55862940 # occ.  0.00000000
 
ion      s     py     pz     px    dxy    dyz    dz2    dxz  x2-y2  fy3x2   fxyz   fyz2    fz3   fxz2   fzx2    fx3    tot
    1  0.245  0.000  0.001  0.000  0.000  0.000  0.043  0.000  0.000  0.000  0.000  0.000  0.000  0.000  0.000  0.000  0.289
    2  0.152  0.001  0.021  0.003  0.000  0.000  0.000  0.000  0.000  0.000  0.000  0.000  0.000  0.000  0.000  0.000  0.177
    3  0.152  0.001  0.021  0.003  0.000  0.000  0.000  0.000  0.000  0.000  0.000  0.000  0.000  0.000  0.000  0.000  0.177
tot    0.549  0.002  0.042  0.007  0.000  0.000  0.044  0.000  0.000  0.000  0.000  0.000  0.000  0.000  0.000  0.000  0.644

 
band    15 # energy    9.59012020 # occ.  0.00000000
 
ion      s     py     pz     px    dxy    dyz    dz2    dxz  x2-y2  fy3x2   fxyz   fyz2    fz3   fxz2   fzx2    fx3    tot
    1  0.001  0.000  0.150  0.000  0.001  0.000  0.000  0.001  0.000  0.017  0.000  0.000  0.000  0.000  0.000  0.000  0.172
    2  0.040  0.001  0.007  0.004  0.000  0.000  0.048  0.000  0.000  0.000  0.000  0.000  0.000  0.000  0.000  0.000  0.100
    3  0.040  0.001  0.007  0.004  0.000  0.000  0.048  0.000  0.000  0.000  0.000  0.000  0.000  0.000  0.000  0.000  0.100
tot    0.082  0.003  0.164  0.008  0.002  0.000  0.096  0.001  0.001  0.017  0.000  0.000  0.000  0.000  0.000  0.000  0.373

 
band    16 # energy   12.98481940 # occ.  0.00000000
 
ion      s     py     pz     px    dxy    dyz    dz2    dxz  x2-y2  fy3x2   fxyz   fyz2    fz3   fxz2   fzx2    fx3    tot
    1  0.003  0.029  0.000  0.248  0.000  0.000  0.001  0.000  0.000  0.000  0.015  0.001  0.000  0.007  0.002  0.000  0.305
    2  0.001  0.002  0.000  0.017  0.078  0.000  0.000  0.001  0.009  0.000  0.000  0.000  0.000  0.000  0.000  0.000  0.109
    3  0.001  0.002  0.000  0.017  0.078  0.000  0.000  0.001  0.009  0.000  0.000  0.000  0.000  0.000  0.000  0.000  0.109
tot    0.004  0.034  0.000  0.283  0.157  0.001  0.001  0.003  0.018  0.000  0.015  0.001  0.000  0.007  0.002  0.000  0.524

 

 k-point     3 :    0.05263158 0.00000000 0.00000000     weight = 0.00555556

band     1 # energy   -9.50922440 # occ.  2.00000000
 
ion      s     py     pz     px    dxy    dyz    dz2    dxz  x2-y2  fy3x2   fxyz   fyz2    fz3   fxz2   fzx2    fx3    tot
    1  0.102  0.000  0.000  0.001  0.000  0.000  0.003  0.000  0.000  0.000  0.000  0.000  0.000  0.000  0.000  0.000  0.106
    2  0.286  0.000  0.003  0.000  0.000  0.000  0.000  0.000  0.000  0.000  0.000  0.000  0.000  0.000  0.000  0.000  0.288
    3  0.286  0.000  0.003  0.000  0.000  0.000  0.000  0.000  0.000  0.000  0.000  0.000  0.000  0.000  0.000  0.000  0.288
tot    0.673  0.000  0.005  0.001  0.000  0.000  0.003  0.000  0.000  0.000  0.000  0.000  0.000  0.000  0.000  0.000  0.682

 
band     2 # energy   -7.14501321 # occ.  2.00000000
 
ion      s     py     pz     px    dxy    dyz    dz2    dxz  x2-y2  fy3x2   fxyz   fyz2    fz3   fxz2   fzx2    fx3    tot
    1  0.000  0.000  0.034  0.000  0.001  0.000  0.000  0.001  0.000  0.002  0.000  0.000  0.002  0.000  0.000  0.000  0.041
    2  0.375  0.000  0.001  0.000  0.000  0.000  0.000  0.000  0.000  0.000  0.000  0.000  0.000  0.000  0.000  0.000  0.376
    3  0.375  0.000  0.001  0.000  0.000  0.000  0.000  0.000  0.000  0.000  0.000  0.000  0.000  0.000  0.000  0.000  0.376
tot    0.751  0.000  0.035  0.000  0.001  0.000  0.001  0.001  0.000  0.002  0.000  0.000  0.002  0.000  0.000  0.000  0.794

 
band     3 # energy   -1.02662324 # occ.  2.00000000
 
ion      s     py     pz     px    dxy    dyz    dz2    dxz  x2-y2  fy3x2   fxyz   fyz2    fz3   fxz2   fzx2    fx3    tot
    1  0.064  0.000  0.000  0.000  0.000  0.000  0.240  0.000  0.000  0.000  0.000  0.000  0.000  0.000  0.000  0.000  0.304
    2  0.013  0.000  0.130  0.000  0.000  0.000  0.001  0.000  0.000  0.000  0.000  0.000  0.000  0.000  0.000  0.000  0.144
    3  0.013  0.000  0.130  0.000  0.000  0.000  0.001  0.000  0.000  0.000  0.000  0.000  0.000  0.000  0.000  0.000  0.144
tot    0.090  0.000  0.261  0.000  0.000  0.000  0.242  0.000  0.000  0.000  0.000  0.000  0.000  0.000  0.000  0.000  0.592

 
band     4 # energy   -0.33673392 # occ.  2.00000000
 
ion      s     py     pz     px    dxy    dyz    dz2    dxz  x2-y2  fy3x2   fxyz   fyz2    fz3   fxz2   fzx2    fx3    tot
    1  0.000  0.000  0.001  0.000  0.325  0.047  0.000  0.105  0.144  0.000  0.000  0.000  0.000  0.000  0.000  0.000  0.623
    2  0.001  0.030  0.001  0.068  0.000  0.002  0.000  0.004  0.000  0.000  0.000  0.000  0.000  0.000  0.000  0.000  0.105
    3  0.001  0.030  0.001  0.068  0.000  0.002  0.000  0.004  0.000  0.000  0.000  0.000  0.000  0.000  0.000  0.000  0.105
tot    0.001  0.060  0.003  0.136  0.325  0.051  0.000  0.112  0.144  0.000  0.000  0.000  0.000  0.000  0.000  0.000  0.833

 
band     5 # energy   -0.33408842 # occ.  2.00000000
 
ion      s     py     pz     px    dxy    dyz    dz2    dxz  x2-y2  fy3x2   fxyz   fyz2    fz3   fxz2   fzx2    fx3    tot
    1  0.000  0.000  0.000  0.000  0.143  0.116  0.000  0.051  0.321  0.000  0.000  0.000  0.000  0.000  0.000  0.000  0.630
    2  0.000  0.068  0.000  0.030  0.000  0.004  0.000  0.002  0.000  0.000  0.000  0.000  0.000  0.000  0.000  0.000  0.104
    3  0.000  0.068  0.000  0.030  0.000  0.004  0.000  0.002  0.000  0.000  0.000  0.000  0.000  0.000  0.000  0.000  0.104
tot    0.000  0.137  0.000  0.061  0.143  0.123  0.000  0.054  0.321  0.000  0.000  0.000  0.000  0.000  0.000  0.000  0.839

 
band     6 # energy    1.87041396 # occ.  2.00000000
 
ion      s     py     pz     px    dxy    dyz    dz2    dxz  x2-y2  fy3x2   fxyz   fyz2    fz3   fxz2   fzx2    fx3    tot
    1  0.000  0.000  0.000  0.000  0.156  0.165  0.000  0.501  0.051  0.000  0.000  0.000  0.000  0.000  0.000  0.000  0.874
    2  0.000  0.001  0.000  0.004  0.005  0.000  0.000  0.000  0.002  0.000  0.000  0.000  0.000  0.000  0.000  0.000  0.012
    3  0.000  0.001  0.000  0.004  0.005  0.000  0.000  0.000  0.002  0.000  0.000  0.000  0.000  0.000  0.000  0.000  0.012
tot    0.001  0.003  0.000  0.008  0.166  0.165  0.000  0.501  0.054  0.000  0.000  0.000  0.000  0.000  0.000  0.000  0.898

 
band     7 # energy    1.88510223 # occ.  2.00000000
 
ion      s     py     pz     px    dxy    dyz    dz2    dxz  x2-y2  fy3x2   fxyz   fyz2    fz3   fxz2   fzx2    fx3    tot
    1  0.000  0.000  0.000  0.000  0.055  0.493  0.000  0.162  0.167  0.000  0.000  0.000  0.000  0.000  0.000  0.000  0.878
    2  0.000  0.003  0.000  0.001  0.002  0.000  0.000  0.000  0.005  0.000  0.000  0.000  0.000  0.000  0.000  0.000  0.011
    3  0.000  0.003  0.000  0.001  0.002  0.000  0.000  0.000  0.005  0.000  0.000  0.000  0.000  0.000  0.000  0.000  0.011
tot    0.000  0.007  0.000  0.002  0.058  0.493  0.000  0.162  0.177  0.000  0.000  0.000  0.000  0.000  0.000  0.000  0.900

 
band     8 # energy    3.12833772 # occ.  2.00000000
 
ion      s     py     pz     px    dxy    dyz    dz2    dxz  x2-y2  fy3x2   fxyz   fyz2    fz3   fxz2   fzx2    fx3    tot
    1  0.109  0.000  0.000  0.001  0.001  0.000  0.598  0.001  0.000  0.000  0.000  0.000  0.000  0.000  0.000  0.000  0.710
    2  0.010  0.003  0.041  0.008  0.000  0.000  0.003  0.000  0.000  0.000  0.000  0.000  0.000  0.000  0.000  0.000  0.066
    3  0.010  0.003  0.041  0.008  0.000  0.000  0.003  0.000  0.000  0.000  0.000  0.000  0.000  0.000  0.000  0.000  0.066
tot    0.130  0.005  0.083  0.016  0.001  0.000  0.604  0.001  0.000  0.000  0.000  0.000  0.000  0.000  0.000  0.000  0.842

 
band     9 # energy    4.56407541 # occ.  2.00000000
 
ion      s     py     pz     px    dxy    dyz    dz2    dxz  x2-y2  fy3x2   fxyz   fyz2    fz3   fxz2   fzx2    fx3    tot
    1  0.002  0.018  0.000  0.054  0.010  0.001  0.035  0.003  0.003  0.000  0.013  0.001  0.000  0.002  0.004  0.000  0.145
    2  0.003  0.071  0.005  0.212  0.001  0.000  0.000  0.000  0.000  0.000  0.000  0.000  0.000  0.000  0.000  0.000  0.294
    3  0.003  0.071  0.005  0.212  0.001  0.000  0.000  0.000  0.000  0.000  0.000  0.000  0.000  0.000  0.000  0.000  0.294
tot    0.008  0.160  0.011  0.478  0.012  0.001  0.036  0.004  0.004  0.000  0.013  0.001  0.000  0.002  0.004  0.000  0.733

 
band    10 # energy    4.66625560 # occ.  2.00000000
 
ion      s     py     pz     px    dxy    dyz    dz2    dxz  x2-y2  fy3x2   fxyz   fyz2    fz3   fxz2   fzx2    fx3    tot
    1  0.000  0.057  0.000  0.019  0.003  0.002  0.000  0.001  0.011  0.000  0.004  0.002  0.000  0.001  0.013  0.000  0.114
    2  0.000  0.230  0.000  0.077  0.000  0.001  0.000  0.000  0.001  0.000  0.000  0.000  0.000  0.000  0.000  0.000  0.310
    3  0.000  0.230  0.000  0.077  0.000  0.001  0.000  0.000  0.001  0.000  0.000  0.000  0.000  0.000  0.000  0.000  0.310
tot    0.000  0.517  0.000  0.174  0.004  0.003  0.000  0.001  0.013  0.000  0.004  0.002  0.000  0.001  0.013  0.000  0.734

 
band    11 # energy    5.87911235 # occ.  0.08420141
 
ion      s     py     pz     px    dxy    dyz    dz2    dxz  x2-y2  fy3x2   fxyz   fyz2    fz3   fxz2   fzx2    fx3    tot
    1  0.000  0.000  0.007  0.000  0.002  0.001  0.000  0.003  0.001  0.017  0.000  0.000  0.006  0.000  0.000  0.000  0.038
    2  0.001  0.004  0.329  0.012  0.000  0.000  0.001  0.000  0.000  0.000  0.000  0.000  0.000  0.000  0.000  0.000  0.346
    3  0.001  0.004  0.329  0.012  0.000  0.000  0.001  0.000  0.000  0.000  0.000  0.000  0.000  0.000  0.000  0.000  0.346
tot    0.001  0.008  0.665  0.024  0.002  0.001  0.001  0.004  0.001  0.017  0.000  0.000  0.006  0.000  0.000  0.000  0.731

 
band    12 # energy    7.05152342 # occ.  0.00000000
 
ion      s     py     pz     px    dxy    dyz    dz2    dxz  x2-y2  fy3x2   fxyz   fyz2    fz3   fxz2   fzx2    fx3    tot
    1  0.000  0.000  0.006  0.000  0.171  0.018  0.000  0.055  0.057  0.003  0.000  0.000  0.000  0.000  0.000  0.000  0.312