 running on   12 total cores
 distrk:  each k-point on   12 cores,    1 groups
 distr:  one band on    3 cores,    4 groups
 using from now: INCAR     
 vasp.5.4.4.18Apr17-6-g9f103f2a35 (build Aug 06 2018 16:10:39) complex          
  
 POSCAR found type information on POSCAR  Pt Se
 POSCAR found :  2 types and       3 ions
 scaLAPACK will be used

 ----------------------------------------------------------------------------- 
|                                                                             |
|  ADVICE TO THIS USER RUNNING 'VASP/VAMP'   (HEAR YOUR MASTER'S VOICE ...):  |
|                                                                             |
|      You have a (more or less) 'small supercell' and for smaller cells      |
|      it is recommended  to use the reciprocal-space projection scheme!      |
|      The real space optimization is not  efficient for small cells and it   |
|      is also less accurate ...                                              |
|      Therefore set LREAL=.FALSE. in the  INCAR file                         |
|                                                                             |
 ----------------------------------------------------------------------------- 

 LDA part: xc-table for Pade appr. of Perdew
 WARNING: stress and forces are not correct
 POSCAR, INCAR and KPOINTS ok, starting setup
 FFT: planning ...
 WAVECAR not read
 charge-density read from file: unknown                                 
 entering main loop
       N       E                     dE             d eps       ncg     rms          rms(c)
DAV:   1     0.915770519048E+02    0.91577E+02   -0.82249E+03  2360   0.960E+02
DAV:   2    -0.913476050866E+01   -0.10071E+03   -0.97930E+02  2432   0.246E+02
DAV:   3    -0.135470922221E+02   -0.44123E+01   -0.43626E+01  2040   0.490E+01
DAV:   4    -0.137069032722E+02   -0.15981E+00   -0.15949E+00  2208   0.901E+00
DAV:   5    -0.137093123762E+02   -0.24091E-02   -0.24087E-02  2112   0.113E+00
DAV:   6    -0.137094017753E+02   -0.89399E-04   -0.89381E-04  1632   0.353E-01
   1 F= -.13709402E+02 E0= -.13700645E+02  d E =-.175133E-01
 writing wavefunctions
