<?xml version="1.0" encoding="ISO-8859-1"?>
<modeling>
 <generator>
  <i name="program" type="string">vasp </i>
  <i name="version" type="string">5.4.4.18Apr17-6-g9f103f2a35  </i>
  <i name="subversion" type="string">(build Aug 06 2018 16:10:39) complex            parallel </i>
  <i name="platform" type="string">LinuxIFC </i>
  <i name="date" type="string">2018 11 05 </i>
  <i name="time" type="string">16:11:05 </i>
 </generator>
 <incar>
  <i type="string" name="PREC">normal</i>
  <i type="string" name="ALGO"> Normal</i>
  <i type="int" name="ICHARG">    11</i>
  <i type="int" name="IBRION">    -1</i>
  <i name="EDIFF">      0.00100000</i>
  <i type="int" name="NSW">     0</i>
  <i type="int" name="ISIF">     2</i>
  <i name="SYMPREC">      0.00010000</i>
  <i name="ENCUT">    350.00000000</i>
  <i type="string" name="LREAL">Auto</i>
  <i type="int" name="ISMEAR">     0</i>
  <i name="SIGMA">      0.10000000</i>
  <i type="logical" name="LWAVE"> T  </i>
  <i type="logical" name="LCHARG"> T  </i>
  <i type="int" name="LORBIT">    11</i>
  <v type="int" name="KPOINT_BSE">    -1     0     0     0</v>
 </incar>
 <structure name="primitive_cell" >
  <crystal>
   <varray name="basis" >
    <v>       1.88581811      -3.26617343      -0.00005704 </v>
    <v>       1.88581811       3.26617343       0.00005704 </v>
    <v>       0.00000000       0.00005384       5.26207358 </v>
   </varray>
   <i name="volume">     64.82252683 </i>
   <varray name="rec_basis" >
    <v>       0.26513692      -0.15308434       0.00000157 </v>
    <v>       0.26513692       0.15308434      -0.00000157 </v>
    <v>       0.00000000      -0.00000332       0.19003915 </v>
   </varray>
  </crystal>
  <varray name="positions" >
   <v>       0.00000000       0.00000000       0.00000000 </v>
   <v>       0.33333228      -0.33333228       0.24697395 </v>
   <v>      -0.33333228       0.33333228      -0.24697395 </v>
  </varray>
 </structure>
 <varray name="primitive_index" >
  <v type="int" >        1 </v>
  <v type="int" >        2 </v>
  <v type="int" >        3 </v>
 </varray>
 <kpoints>
  <generation param="listgenerated">
   <i name="divisions" type="int">      20 </i>
   <v>       0.00000000       0.00000000       0.00000000 </v>
   <v>       0.50000000       0.00000000       0.00000000 </v>
   <v>       0.33330000       0.33330000       0.00000000 </v>
   <v>       0.00000000       0.00000000       0.00000000 </v>
   <v>       0.00000000       0.00000000       0.50000000 </v>
   <v>       0.50000000       0.00000000       0.50000000 </v>
   <v>       0.33330000       0.33330000       0.50000000 </v>
   <v>       0.50000000       0.00000000       0.50000000 </v>
   <v>       0.33330000       0.33330000       0.00000000 </v>
   <v>       0.33330000       0.33330000       0.50000000 </v>
  </generation>
  <varray name="kpointlist" >
   <v>       0.00000000       0.00000000       0.00000000 </v>
   <v>       0.02631579       0.00000000       0.00000000 </v>
   <v>       0.05263158       0.00000000       0.00000000 </v>
   <v>       0.07894737       0.00000000       0.00000000 </v>
   <v>       0.10526316       0.00000000       0.00000000 </v>
   <v>       0.13157895       0.00000000       0.00000000 </v>
   <v>       0.15789474       0.00000000       0.00000000 </v>
   <v>       0.18421053       0.00000000       0.00000000 </v>
   <v>       0.21052632       0.00000000       0.00000000 </v>
   <v>       0.23684211       0.00000000       0.00000000 </v>
   <v>       0.26315789       0.00000000       0.00000000 </v>
   <v>       0.28947368       0.00000000       0.00000000 </v>
   <v>       0.31578947       0.00000000       0.00000000 </v>
   <v>       0.34210526       0.00000000       0.00000000 </v>
   <v>       0.36842105       0.00000000       0.00000000 </v>
   <v>       0.39473684       0.00000000       0.00000000 </v>
   <v>       0.42105263       0.00000000       0.00000000 </v>
   <v>       0.44736842       0.00000000       0.00000000 </v>
   <v>       0.47368421       0.00000000       0.00000000 </v>
   <v>       0.50000000       0.00000000       0.00000000 </v>
   <v>       0.50000000       0.00000000       0.00000000 </v>
   <v>       0.49122632       0.01754211       0.00000000 </v>
   <v>       0.48245263       0.03508421       0.00000000 </v>
   <v>       0.47367895       0.05262632       0.00000000 </v>
   <v>       0.46490526       0.07016842       0.00000000 </v>
   <v>       0.45613158       0.08771053       0.00000000 </v>
   <v>       0.44735789       0.10525263       0.00000000 </v>
   <v>       0.43858421       0.12279474       0.00000000 </v>
   <v>       0.42981053       0.14033684       0.00000000 </v>
   <v>       0.42103684       0.15787895       0.00000000 </v>
   <v>       0.41226316       0.17542105       0.00000000 </v>
   <v>       0.40348947       0.19296316       0.00000000 </v>
   <v>       0.39471579       0.21050526       0.00000000 </v>
   <v>       0.38594211       0.22804737       0.00000000 </v>
   <v>       0.37716842       0.24558947       0.00000000 </v>
   <v>       0.36839474       0.26313158       0.00000000 </v>
   <v>       0.35962105       0.28067368       0.00000000 </v>
   <v>       0.35084737       0.29821579       0.00000000 </v>
   <v>       0.34207368       0.31575789       0.00000000 </v>
   <v>       0.33330000       0.33330000       0.00000000 </v>
   <v>       0.33330000       0.33330000       0.00000000 </v>
   <v>       0.31575789       0.31575789       0.00000000 </v>
   <v>       0.29821579       0.29821579       0.00000000 </v>
   <v>       0.28067368       0.28067368       0.00000000 </v>
   <v>       0.26313158       0.26313158       0.00000000 </v>
   <v>       0.24558947       0.24558947       0.00000000 </v>
   <v>       0.22804737       0.22804737       0.00000000 </v>
   <v>       0.21050526       0.21050526       0.00000000 </v>
   <v>       0.19296316       0.19296316       0.00000000 </v>
   <v>       0.17542105       0.17542105       0.00000000 </v>
   <v>       0.15787895       0.15787895       0.00000000 </v>
   <v>       0.14033684       0.14033684       0.00000000 </v>
   <v>       0.12279474       0.12279474       0.00000000 </v>
   <v>       0.10525263       0.10525263       0.00000000 </v>
   <v>       0.08771053       0.08771053       0.00000000 </v>
   <v>       0.07016842       0.07016842       0.00000000 </v>
   <v>       0.05262632       0.05262632       0.00000000 </v>
   <v>       0.03508421       0.03508421       0.00000000 </v>
   <v>       0.01754211       0.01754211       0.00000000 </v>
   <v>       0.00000000       0.00000000       0.00000000 </v>
   <v>       0.00000000       0.00000000       0.00000000 </v>
   <v>       0.00000000       0.00000000       0.02631579 </v>
   <v>       0.00000000       0.00000000       0.05263158 </v>
   <v>       0.00000000       0.00000000       0.07894737 </v>
   <v>       0.00000000       0.00000000       0.10526316 </v>
   <v>       0.00000000       0.00000000       0.13157895 </v>
   <v>       0.00000000       0.00000000       0.15789474 </v>
   <v>       0.00000000       0.00000000       0.18421053 </v>
   <v>       0.00000000       0.00000000       0.21052632 </v>
   <v>       0.00000000       0.00000000       0.23684211 </v>
   <v>       0.00000000       0.00000000       0.26315789 </v>
   <v>       0.00000000       0.00000000       0.28947368 </v>
   <v>       0.00000000       0.00000000       0.31578947 </v>
   <v>       0.00000000       0.00000000       0.34210526 </v>
   <v>       0.00000000       0.00000000       0.36842105 </v>
   <v>       0.00000000       0.00000000       0.39473684 </v>
   <v>       0.00000000       0.00000000       0.42105263 </v>
   <v>       0.00000000       0.00000000       0.44736842 </v>
   <v>       0.00000000       0.00000000       0.47368421 </v>
   <v>       0.00000000       0.00000000       0.50000000 </v>
   <v>       0.00000000       0.00000000       0.50000000 </v>
   <v>       0.02631579       0.00000000       0.50000000 </v>
   <v>       0.05263158       0.00000000       0.50000000 </v>
   <v>       0.07894737       0.00000000       0.50000000 </v>
   <v>       0.10526316       0.00000000       0.50000000 </v>
   <v>       0.13157895       0.00000000       0.50000000 </v>
   <v>       0.15789474       0.00000000       0.50000000 </v>
   <v>       0.18421053       0.00000000       0.50000000 </v>
   <v>       0.21052632       0.00000000       0.50000000 </v>
   <v>       0.23684211       0.00000000       0.50000000 </v>
   <v>       0.26315789       0.00000000       0.50000000 </v>
   <v>       0.28947368       0.00000000       0.50000000 </v>
   <v>       0.31578947       0.00000000       0.50000000 </v>
   <v>       0.34210526       0.00000000       0.50000000 </v>
   <v>       0.36842105       0.00000000       0.50000000 </v>
   <v>       0.39473684       0.00000000       0.50000000 </v>
   <v>       0.42105263       0.00000000       0.50000000 </v>
   <v>       0.44736842       0.00000000       0.50000000 </v>
   <v>       0.47368421       0.00000000       0.50000000 </v>
   <v>       0.50000000       0.00000000       0.50000000 </v>
   <v>       0.50000000       0.00000000       0.50000000 </v>
   <v>       0.49122632       0.01754211       0.50000000 </v>
   <v>       0.48245263       0.03508421       0.50000000 </v>
   <v>       0.47367895       0.05262632       0.50000000 </v>
   <v>       0.46490526       0.07016842       0.50000000 </v>
   <v>       0.45613158       0.08771053       0.50000000 </v>
   <v>       0.44735789       0.10525263       0.50000000 </v>
   <v>       0.43858421       0.12279474       0.50000000 </v>
   <v>       0.42981053       0.14033684       0.50000000 </v>
   <v>       0.42103684       0.15787895       0.50000000 </v>
   <v>       0.41226316       0.17542105       0.50000000 </v>
   <v>       0.40348947       0.19296316       0.50000000 </v>
   <v>       0.39471579       0.21050526       0.50000000 </v>
   <v>       0.38594211       0.22804737       0.50000000 </v>
   <v>       0.37716842       0.24558947       0.50000000 </v>
   <v>       0.36839474       0.26313158       0.50000000 </v>
   <v>       0.35962105       0.28067368       0.50000000 </v>
   <v>       0.35084737       0.29821579       0.50000000 </v>
   <v>       0.34207368       0.31575789       0.50000000 </v>
   <v>       0.33330000       0.33330000       0.50000000 </v>
   <v>       0.33330000       0.33330000       0.50000000 </v>
   <v>       0.31575789       0.31575789       0.50000000 </v>
   <v>       0.29821579       0.29821579       0.50000000 </v>
   <v>       0.28067368       0.28067368       0.50000000 </v>
   <v>       0.26313158       0.26313158       0.50000000 </v>
   <v>       0.24558947       0.24558947       0.50000000 </v>
   <v>       0.22804737       0.22804737       0.50000000 </v>
   <v>       0.21050526       0.21050526       0.50000000 </v>
   <v>       0.19296316       0.19296316       0.50000000 </v>
   <v>       0.17542105       0.17542105       0.50000000 </v>
   <v>       0.15787895       0.15787895       0.50000000 </v>
   <v>       0.14033684       0.14033684       0.50000000 </v>
   <v>       0.12279474       0.12279474       0.50000000 </v>
   <v>       0.10525263       0.10525263       0.50000000 </v>
   <v>       0.08771053       0.08771053       0.50000000 </v>
   <v>       0.07016842       0.07016842       0.50000000 </v>
   <v>       0.05262632       0.05262632       0.50000000 </v>
   <v>       0.03508421       0.03508421       0.50000000 </v>
   <v>       0.01754211       0.01754211       0.50000000 </v>
   <v>       0.00000000       0.00000000       0.50000000 </v>
   <v>       0.50000000       0.00000000       0.50000000 </v>
   <v>       0.50000000       0.00000000       0.47368421 </v>
   <v>       0.50000000       0.00000000       0.44736842 </v>
   <v>       0.50000000       0.00000000       0.42105263 </v>
   <v>       0.50000000       0.00000000       0.39473684 </v>
   <v>       0.50000000       0.00000000       0.36842105 </v>
   <v>       0.50000000       0.00000000       0.34210526 </v>
   <v>       0.50000000       0.00000000       0.31578947 </v>
   <v>       0.50000000       0.00000000       0.28947368 </v>
   <v>       0.50000000       0.00000000       0.26315789 </v>
   <v>       0.50000000       0.00000000       0.23684211 </v>
   <v>       0.50000000       0.00000000       0.21052632 </v>
   <v>       0.50000000       0.00000000       0.18421053 </v>
   <v>       0.50000000       0.00000000       0.15789474 </v>
   <v>       0.50000000       0.00000000       0.13157895 </v>
   <v>       0.50000000       0.00000000       0.10526316 </v>
   <v>       0.50000000       0.00000000       0.07894737 </v>
   <v>       0.50000000       0.00000000       0.05263158 </v>
   <v>       0.50000000       0.00000000       0.02631579 </v>
   <v>       0.50000000       0.00000000       0.00000000 </v>
   <v>       0.33330000       0.33330000       0.00000000 </v>
   <v>       0.33330000       0.33330000       0.02631579 </v>
   <v>       0.33330000       0.33330000       0.05263158 </v>
   <v>       0.33330000       0.33330000       0.07894737 </v>
   <v>       0.33330000       0.33330000       0.10526316 </v>
   <v>       0.33330000       0.33330000       0.13157895 </v>
   <v>       0.33330000       0.33330000       0.15789474 </v>
   <v>       0.33330000       0.33330000       0.18421053 </v>
   <v>       0.33330000       0.33330000       0.21052632 </v>
   <v>       0.33330000       0.33330000       0.23684211 </v>
   <v>       0.33330000       0.33330000       0.26315789 </v>
   <v>       0.33330000       0.33330000       0.28947368 </v>
   <v>       0.33330000       0.33330000       0.31578947 </v>
   <v>       0.33330000       0.33330000       0.34210526 </v>
   <v>       0.33330000       0.33330000       0.36842105 </v>
   <v>       0.33330000       0.33330000       0.39473684 </v>
   <v>       0.33330000       0.33330000       0.42105263 </v>
   <v>       0.33330000       0.33330000       0.44736842 </v>
   <v>       0.33330000       0.33330000       0.47368421 </v>
   <v>       0.33330000       0.33330000       0.50000000 </v>
  </varray>
  <varray name="weights" >
   <v>       0.00555556 </v>
   <v>       0.00555556 </v>
   <v>       0.00555556 </v>
   <v>       0.00555556 </v>
   <v>       0.00555556 </v>
   <v>       0.00555556 </v>
   <v>       0.00555556 </v>
   <v>       0.00555556 </v>
   <v>       0.00555556 </v>
   <v>       0.00555556 </v>
   <v>       0.00555556 </v>
   <v>       0.00555556 </v>
   <v>       0.00555556 </v>
   <v>       0.00555556 </v>
   <v>       0.00555556 </v>
   <v>       0.00555556 </v>
   <v>       0.00555556 </v>
   <v>       0.00555556 </v>
   <v>       0.00555556 </v>
   <v>       0.00555556 </v>
   <v>       0.00555556 </v>
   <v>       0.00555556 </v>
   <v>       0.00555556 </v>
   <v>       0.00555556 </v>
   <v>       0.00555556 </v>
   <v>       0.00555556 </v>
   <v>       0.00555556 </v>
   <v>       0.00555556 </v>
   <v>       0.00555556 </v>
   <v>       0.00555556 </v>
   <v>       0.00555556 </v>
   <v>       0.00555556 </v>
   <v>       0.00555556 </v>
   <v>       0.00555556 </v>
   <v>       0.00555556 </v>
   <v>       0.00555556 </v>
   <v>       0.00555556 </v>
   <v>       0.00555556 </v>
   <v>       0.00555556 </v>
   <v>       0.00555556 </v>
   <v>       0.00555556 </v>
   <v>       0.00555556 </v>
   <v>       0.00555556 </v>
   <v>       0.00555556 </v>
   <v>       0.00555556 </v>
   <v>       0.00555556 </v>
   <v>       0.00555556 </v>
   <v>       0.00555556 </v>
   <v>       0.00555556 </v>
   <v>       0.00555556 </v>
   <v>       0.00555556 </v>
   <v>       0.00555556 </v>
   <v>       0.00555556 </v>
   <v>       0.00555556 </v>
   <v>       0.00555556 </v>
   <v>       0.00555556 </v>
   <v>       0.00555556 </v>
   <v>       0.00555556 </v>
   <v>       0.00555556 </v>
   <v>       0.00555556 </v>
   <v>       0.00555556 </v>
   <v>       0.00555556 </v>
   <v>       0.00555556 </v>
   <v>       0.00555556 </v>
   <v>       0.00555556 </v>
   <v>       0.00555556 </v>
   <v>       0.00555556 </v>
   <v>       0.00555556 </v>
   <v>       0.00555556 </v>
   <v>       0.00555556 </v>
   <v>       0.00555556 </v>
   <v>       0.00555556 </v>
   <v>       0.00555556 </v>
   <v>       0.00555556 </v>
   <v>       0.00555556 </v>
   <v>       0.00555556 </v>
   <v>       0.00555556 </v>
   <v>       0.00555556 </v>
   <v>       0.00555556 </v>
   <v>       0.00555556 </v>
   <v>       0.00555556 </v>
   <v>       0.00555556 </v>
   <v>       0.00555556 </v>
   <v>       0.00555556 </v>
   <v>       0.00555556 </v>
   <v>       0.00555556 </v>
   <v>       0.00555556 </v>
   <v>       0.00555556 </v>
   <v>       0.00555556 </v>
   <v>       0.00555556 </v>
   <v>       0.00555556 </v>
   <v>       0.00555556 </v>
   <v>       0.00555556 </v>
   <v>       0.00555556 </v>
   <v>       0.00555556 </v>
   <v>       0.00555556 </v>
   <v>       0.00555556 </v>
   <v>       0.00555556 </v>
   <v>       0.00555556 </v>
   <v>       0.00555556 </v>
   <v>       0.00555556 </v>
   <v>       0.00555556 </v>
   <v>       0.00555556 </v>
   <v>       0.00555556 </v>
   <v>       0.00555556 </v>
   <v>       0.00555556 </v>
   <v>       0.00555556 </v>
   <v>       0.00555556 </v>
   <v>       0.00555556 </v>
   <v>       0.00555556 </v>
   <v>       0.00555556 </v>
   <v>       0.00555556 </v>
   <v>       0.00555556 </v>
   <v>       0.00555556 </v>
   <v>       0.00555556 </v>
   <v>       0.00555556 </v>
   <v>       0.00555556 </v>
   <v>       0.00555556 </v>
   <v>       0.00555556 </v>
   <v>       0.00555556 </v>
   <v>       0.00555556 </v>
   <v>       0.00555556 </v>
   <v>       0.00555556 </v>
   <v>       0.00555556 </v>
   <v>       0.00555556 </v>
   <v>       0.00555556 </v>
   <v>       0.00555556 </v>
   <v>       0.00555556 </v>
   <v>       0.00555556 </v>
   <v>       0.00555556 </v>
   <v>       0.00555556 </v>
   <v>       0.00555556 </v>
   <v>       0.00555556 </v>
   <v>       0.00555556 </v>
   <v>       0.00555556 </v>
   <v>       0.00555556 </v>
   <v>       0.00555556 </v>
   <v>       0.00555556 </v>
   <v>       0.00555556 </v>
   <v>       0.00555556 </v>
   <v>       0.00555556 </v>
   <v>       0.00555556 </v>
   <v>       0.00555556 </v>
   <v>       0.00555556 </v>
   <v>       0.00555556 </v>
   <v>       0.00555556 </v>
   <v>       0.00555556 </v>
   <v>       0.00555556 </v>
   <v>       0.00555556 </v>
   <v>       0.00555556 </v>
   <v>       0.00555556 </v>
   <v>       0.00555556 </v>
   <v>       0.00555556 </v>
   <v>       0.00555556 </v>
   <v>       0.00555556 </v>
   <v>       0.00555556 </v>
   <v>       0.00555556 </v>
   <v>       0.00555556 </v>
   <v>       0.00555556 </v>
   <v>       0.00555556 </v>
   <v>       0.00555556 </v>
   <v>       0.00555556 </v>
   <v>       0.00555556 </v>
   <v>       0.00555556 </v>
   <v>       0.00555556 </v>
   <v>       0.00555556 </v>
   <v>       0.00555556 </v>
   <v>       0.00555556 </v>
   <v>       0.00555556 </v>
   <v>       0.00555556 </v>
   <v>       0.00555556 </v>
   <v>       0.00555556 </v>
   <v>       0.00555556 </v>
   <v>       0.00555556 </v>
   <v>       0.00555556 </v>
   <v>       0.00555556 </v>
   <v>       0.00555556 </v>
   <v>       0.00555556 </v>
   <v>       0.00555556 </v>
   <v>       0.00555556 </v>
  </varray>
 </kpoints>
 <parameters>
  <separator name="general" >
   <i type="string" name="SYSTEM">unknown system</i>
   <i type="logical" name="LCOMPAT"> F  </i>
  </separator>
  <separator name="electronic" >
   <i type="string" name="PREC">normal</i>
   <i name="ENMAX">    350.00000000</i>
   <i name="ENAUG">    601.08400000</i>
   <i name="EDIFF">      0.00100000</i>
   <i type="int" name="IALGO">    38</i>
   <i type="int" name="IWAVPR">    10</i>
   <i type="int" name="NBANDS">    16</i>
   <i name="NELECT">     22.00000000</i>
   <i type="int" name="TURBO">     0</i>
   <i type="int" name="IRESTART">     0</i>
   <i type="int" name="NREBOOT">     0</i>
   <i type="int" name="NMIN">     0</i>
   <i name="EREF">      0.00000000</i>
   <separator name="electronic smearing" >
    <i type="int" name="ISMEAR">     0</i>
    <i name="SIGMA">      0.10000000</i>
    <i name="KSPACING">      0.50000000</i>
    <i type="logical" name="KGAMMA"> T  </i>
   </separator>
   <separator name="electronic projectors" >
    <i type="logical" name="LREAL"> T  </i>
    <v name="ROPT">     -0.00050000     -0.00050000</v>
    <i type="int" name="LMAXPAW">  -100</i>
    <i type="int" name="LMAXMIX">     2</i>
    <i type="logical" name="NLSPLINE"> F  </i>
   </separator>
   <separator name="electronic startup" >
    <i type="int" name="ISTART">     1</i>
    <i type="int" name="ICHARG">    11</i>
    <i type="int" name="INIWAV">     1</i>
   </separator>
   <separator name="electronic spin" >
    <i type="int" name="ISPIN">     1</i>
    <i type="logical" name="LNONCOLLINEAR"> F  </i>
    <v name="MAGMOM">      1.00000000      1.00000000      1.00000000</v>
    <i name="NUPDOWN">     -1.00000000</i>
    <i type="logical" name="LSORBIT"> F  </i>
    <v name="SAXIS">      0.00000000      0.00000000      1.00000000</v>
    <i type="logical" name="LSPIRAL"> F  </i>
    <v name="QSPIRAL">      0.00000000      0.00000000      0.00000000</v>
    <i type="logical" name="LZEROZ"> F  </i>
   </separator>
   <separator name="electronic exchange-correlation" >
    <i type="logical" name="LASPH"> F  </i>
    <i type="logical" name="LMETAGGA"> F  </i>
   </separator>
   <separator name="electronic convergence" >
    <i type="int" name="NELM">    60</i>
    <i type="int" name="NELMDL">     0</i>
    <i type="int" name="NELMIN">     2</i>
    <i name="ENINI">    350.00000000</i>
    <separator name="electronic convergence detail" >
     <i type="logical" name="LDIAG"> T  </i>
     <i type="logical" name="LSUBROT"> F  </i>
     <i name="WEIMIN">      0.00000000</i>
     <i name="EBREAK">      0.00001563</i>
     <i name="DEPER">      0.30000000</i>
     <i type="int" name="NRMM">     4</i>
     <i name="TIME">      0.40000000</i>
    </separator>
   </separator>
   <separator name="electronic mixer" >
    <i name="AMIX">      0.40000000</i>
    <i name="BMIX">      1.00000000</i>
    <i name="AMIN">      0.10000000</i>
    <i name="AMIX_MAG">      1.60000000</i>
    <i name="BMIX_MAG">      1.00000000</i>
    <separator name="electronic mixer details" >
     <i type="int" name="IMIX">     4</i>
     <i type="logical" name="MIXFIRST"> F  </i>
     <i type="int" name="MAXMIX">   -45</i>
     <i name="WC">    100.00000000</i>
     <i type="int" name="INIMIX">     1</i>
     <i type="int" name="MIXPRE">     1</i>
     <i type="int" name="MREMOVE">     5</i>
    </separator>
   </separator>
   <separator name="electronic dipolcorrection" >
    <i type="logical" name="LDIPOL"> F  </i>
    <i type="logical" name="LMONO"> F  </i>
    <i type="int" name="IDIPOL">     0</i>
    <i name="EPSILON">      1.00000000</i>
    <v name="DIPOL">   -100.00000000   -100.00000000   -100.00000000</v>
    <i name="EFIELD">      0.00000000</i>
   </separator>
  </separator>
  <separator name="grids" >
   <i type="int" name="NGX">    18</i>
   <i type="int" name="NGY">    18</i>
   <i type="int" name="NGZ">    24</i>
   <i type="int" name="NGXF">    36</i>
   <i type="int" name="NGYF">    36</i>
   <i type="int" name="NGZF">    48</i>
   <i type="logical" name="ADDGRID"> F  </i>
  </separator>
  <separator name="ionic" >
   <i type="int" name="NSW">     0</i>
   <i type="int" name="IBRION">    -1</i>
   <i type="int" name="MDALGO">     0</i>
   <i type="int" name="ISIF">     2</i>
   <i name="PSTRESS">      0.00000000</i>
   <i name="EDIFFG">      0.01000000</i>
   <i type="int" name="NFREE">     0</i>
   <i name="POTIM">      0.50000000</i>
   <i name="SMASS">     -3.00000000</i>
   <i name="SCALEE">      1.00000000</i>
  </separator>
  <separator name="ionic md" >
   <i name="TEBEG">      0.00010000</i>
   <i name="TEEND">      0.00010000</i>
   <i type="int" name="NBLOCK">     1</i>
   <i type="int" name="KBLOCK">     1</i>
   <i type="int" name="NPACO">   256</i>
   <i name="APACO">     16.00000000</i>
  </separator>
  <separator name="symmetry" >
   <i type="int" name="ISYM">     2</i>
   <i name="SYMPREC">      0.00010000</i>
  </separator>
  <separator name="dos" >
   <i type="int" name="LORBIT">    11</i>
   <v name="RWIGS">     -1.00000000     -1.00000000</v>
   <i type="int" name="NEDOS">   301</i>
   <i name="EMIN">     10.00000000</i>
   <i name="EMAX">    -10.00000000</i>
   <i name="EFERMI">      0.00000000</i>
  </separator>
  <separator name="writing" >
   <i type="int" name="NWRITE">     2</i>
   <i type="logical" name="LWAVE"> T  </i>
   <i type="logical" name="LDOWNSAMPLE"> F  </i>
   <i type="logical" name="LCHARG"> T  </i>
   <i type="logical" name="LPARD"> F  </i>
   <i type="logical" name="LVTOT"> F  </i>
   <i type="logical" name="LVHAR"> F  </i>
   <i type="logical" name="LELF"> F  </i>
   <i type="logical" name="LOPTICS"> F  </i>
   <v name="STM">      0.00000000      0.00000000      0.00000000      0.00000000      0.00000000      0.00000000      0.00000000</v>
  </separator>
  <separator name="performance" >
   <i type="int" name="NPAR">     4</i>
   <i type="int" name="NSIM">     4</i>
   <i type="int" name="NBLK">    -1</i>
   <i type="logical" name="LPLANE"> T  </i>
   <i type="logical" name="LSCALAPACK"> T  </i>
   <i type="logical" name="LSCAAWARE"> F  </i>
   <i type="logical" name="LSCALU"> F  </i>
   <i type="logical" name="LASYNC"> F  </i>
   <i type="logical" name="LORBITALREAL"> F  </i>
  </separator>
  <separator name="miscellaneous" >
   <i type="int" name="IDIOT">     3</i>
   <i type="int" name="ISPECIAL">     0</i>
   <i type="logical" name="LMUSIC"> F  </i>
   <v name="POMASS">    195.08000000     78.96000000</v>
   <v name="DARWINR">      0.00000000      0.00000000</v>
   <v name="DARWINV">      1.00000000      1.00000000</v>
   <i type="logical" name="LCORR"> T  </i>
  </separator>
  <i type="logical" name="GGA_COMPAT"> T  </i>
  <i type="logical" name="LBERRY"> F  </i>
  <i type="int" name="ICORELEVEL">     0</i>
  <i type="logical" name="LDAU"> F  </i>
  <i type="int" name="I_CONSTRAINED_M">     0</i>
  <separator name="electronic exchange-correlation" >
   <i type="string" name="GGA">--</i>
   <i type="int" name="VOSKOWN">     0</i>
   <i type="logical" name="LHFCALC"> F  </i>
   <i type="string" name="PRECFOCK"></i>
   <i type="logical" name="LSYMGRAD"> F  </i>
   <i type="logical" name="LHFONE"> F  </i>
   <i type="logical" name="LRHFCALC"> F  </i>
   <i type="logical" name="LTHOMAS"> F  </i>
   <i type="logical" name="LMODELHF"> F  </i>
   <i name="ENCUT4O">     -1.00000000</i>
   <i type="int" name="EXXOEP">     0</i>
   <i type="int" name="FOURORBIT">     0</i>
   <i name="AEXX">      0.00000000</i>
   <i name="HFALPHA">      0.00000000</i>
   <i name="MCALPHA">      0.00000000</i>
   <i name="ALDAX">      1.00000000</i>
   <i name="AGGAX">      1.00000000</i>
   <i name="ALDAC">      1.00000000</i>
   <i name="AGGAC">      1.00000000</i>
   <i type="int" name="NKREDX">     1</i>
   <i type="int" name="NKREDY">     1</i>
   <i type="int" name="NKREDZ">     1</i>
   <i type="logical" name="SHIFTRED"> F  </i>
   <i type="logical" name="ODDONLY"> F  </i>
   <i type="logical" name="EVENONLY"> F  </i>
   <i type="int" name="LMAXFOCK">     0</i>
   <i type="int" name="NMAXFOCKAE">     0</i>
   <i type="logical" name="LFOCKAEDFT"> F  </i>
   <i name="HFSCREEN">      0.00000000</i>
   <i name="HFSCREENC">      0.00000000</i>
   <i type="int" name="NBANDSGWLOW">     0</i>
  </separator>
  <separator name="vdW DFT" >
   <i type="logical" name="LUSE_VDW"> F  </i>
   <i name="Zab_VDW">     -0.84910000</i>
   <i name="PARAM1">      0.12340000</i>
   <i name="PARAM2">      1.00000000</i>
   <i name="PARAM3">      0.00000000</i>
  </separator>
  <separator name="model GW" >
   <i type="int" name="MODEL_GW">     0</i>
   <i name="MODEL_EPS0">     12.96450537</i>
   <i name="MODEL_ALPHA">      1.00000000</i>
  </separator>
  <separator name="linear response parameters" >
   <i type="logical" name="LEPSILON"> F  </i>
   <i type="logical" name="LRPA"> F  </i>
   <i type="logical" name="LNABLA"> F  </i>
   <i type="logical" name="LVEL"> F  </i>
   <i type="int" name="KINTER">     0</i>
   <i name="CSHIFT">      0.10000000</i>
   <i name="OMEGAMAX">     -1.00000000</i>
   <i name="DEG_THRESHOLD">      0.00200000</i>
   <i name="RTIME">     -0.10000000</i>
   <i name="WPLASMAI">      0.00000000</i>
   <v name="DFIELD">      0.00000000      0.00000000      0.00000000</v>
   <v name="WPLASMA">      0.00000000      0.00000000      0.00000000      0.00000000      0.00000000      0.00000000      0.00000000      0.00000000      0.00000000</v>
  </separator>
  <separator name="orbital magnetization" >
   <i type="logical" name="NUCIND"> F  </i>
   <v name="MAGPOS">      0.00000000      0.00000000      0.00000000</v>
   <i type="logical" name="LNICSALL"> T  </i>
   <i type="logical" name="ORBITALMAG"> F  </i>
   <i type="logical" name="LMAGBLOCH"> F  </i>
   <i type="logical" name="LCHIMAG"> F  </i>
   <i type="logical" name="LGAUGE"> T  </i>
   <i type="int" name="MAGATOM">     0</i>
   <v name="MAGDIPOL">      0.00000000      0.00000000      0.00000000</v>
   <v name="AVECCONST">      0.00000000      0.00000000      0.00000000</v>
  </separator>
  <separator name="response functions" >
   <i type="logical" name="LADDER"> F  </i>
   <i type="logical" name="LRPAFORCE"> F  </i>
   <i type="logical" name="LFXC"> F  </i>
   <i type="logical" name="LHARTREE"> T  </i>
   <i type="int" name="IBSE">     0</i>
   <v type="int" name="KPOINT">    -1     0     0     0</v>
   <i type="logical" name="LTCTE"> F  </i>
   <i type="logical" name="LTETE"> F  </i>
   <i type="logical" name="LTRIPLET"> F  </i>
   <i type="logical" name="LFXCEPS"> F  </i>
   <i type="logical" name="LFXHEG"> F  </i>
   <i type="int" name="NATURALO">     2</i>
   <i type="logical" name="L2ORDER"> F  </i>
   <i type="logical" name="LMP2LT"> F  </i>
   <i type="logical" name="LUSEW"> F  </i>
   <i name="ENCUTGW">     -2.00000000</i>
   <i name="ENCUTGWSOFT">     -2.00000000</i>
   <i name="ENCUTLF">     -1.00000000</i>
   <i type="int" name="LMAXMP2">    -1</i>
   <i name="SCISSOR">      0.00000000</i>
   <i type="int" name="NOMEGA">     0</i>
   <i type="int" name="NOMEGAR">     0</i>
   <i type="int" name="NBANDSGW">    -1</i>
   <i type="int" name="NBANDSO">    -1</i>
   <i type="int" name="NBANDSV">    -1</i>
   <i type="int" name="NELM">     1</i>
   <i type="int" name="NELMHF">     1</i>
   <i type="int" name="DIM">     3</i>
   <i type="int" name="ANTIRES">     0</i>
   <i name="OMEGAMAX">    -30.00000000</i>
   <i name="OMEGAMIN">    -30.00000000</i>
   <i name="OMEGATL">   -200.00000000</i>
   <i type="int" name="OMEGAGRID">   140</i>
   <i name="CSHIFT">     -0.10000000</i>
   <i type="logical" name="SELFENERGY"> F  </i>
   <i type="logical" name="LSPECTRAL"> F  </i>
   <i type="logical" name="LSPECTRALGW"> F  </i>
   <i type="logical" name="LSINGLES"> F  </i>
   <i type="logical" name="LFERMIGW"> F  </i>
   <i type="logical" name="ODDONLYGW"> F  </i>
   <i type="logical" name="EVENONLYGW"> F  </i>
   <i type="int" name="NKREDLFX">     1</i>
   <i type="int" name="NKREDLFY">     1</i>
   <i type="int" name="NKREDLFZ">     1</i>
   <i type="int" name="MAXMEM">  2800</i>
   <i type="int" name="TELESCOPE">     0</i>
   <i type="int" name="TAUPAR">     1</i>
   <i type="int" name="OMEGAPAR">    -1</i>
   <i name="LAMBDA">      1.00000000</i>
  </separator>
  <separator name="External order field" >
   <i name="OFIELD_KAPPA">      0.00000000</i>
   <v name="OFIELD_K">      0.00000000      0.00000000      0.00000000</v>
   <i name="OFIELD_Q6_NEAR">      0.00000000</i>
   <i name="OFIELD_Q6_FAR">      0.00000000</i>
   <i name="OFIELD_A">      0.00000000</i>
  </separator>
 </parameters>
 <atominfo>
  <atoms>       3 </atoms>
  <types>       2 </types>
  <array name="atoms" >
   <dimension dim="1">ion</dimension>
   <field type="string">element</field>
   <field type="int">atomtype</field>
   <set>
    <rc><c>Pt</c><c>   1</c></rc>
    <rc><c>Se</c><c>   2</c></rc>
    <rc><c>Se</c><c>   2</c></rc>
   </set>
  </array>
  <array name="atomtypes" >
   <dimension dim="1">type</dimension>
   <field type="int">atomspertype</field>
   <field type="string">element</field>
   <field>mass</field>
   <field>valence</field>
   <field type="string">pseudopotential</field>
   <set>
    <rc><c>   1</c><c>Pt</c><c>    195.08000000</c><c>     10.00000000</c><c>  PAW_PBE Pt_GW 10Mar2009               </c></rc>
    <rc><c>   2</c><c>Se</c><c>     78.96000000</c><c>      6.00000000</c><c>  PAW_PBE Se_GW 20Mar2012               </c></rc>
   </set>
  </array>
 </atominfo>
 <structure name="initialpos" >
  <crystal>
   <varray name="basis" >
    <v>       1.88581811      -3.26617343      -0.00005704 </v>
    <v>       1.88581811       3.26617343       0.00005704 </v>
    <v>       0.00000000       0.00005384       5.26207358 </v>
   </varray>
   <i name="volume">     64.82252683 </i>
   <varray name="rec_basis" >
    <v>       0.26513692      -0.15308434       0.00000157 </v>
    <v>       0.26513692       0.15308434      -0.00000157 </v>
    <v>       0.00000000      -0.00000332       0.19003915 </v>
   </varray>
  </crystal>
  <varray name="positions" >
   <v>       0.00000000       0.00000000       0.00000000 </v>
   <v>       0.33333228       0.66666772       0.24697395 </v>
   <v>       0.66666772       0.33333228       0.75302605 </v>
  </varray>
 </structure>
 <calculation>
  <scstep>
   <time name="dav">    1.49    1.49</time>
   <time name="total">    1.50    1.51</time>
   <energy>
    <i name="alphaZ">     72.03602387 </i>
    <i name="ewald">  -1138.01183584 </i>
    <i name="hartreedc">   -248.03827096 </i>
    <i name="XCdc">    -52.28411500 </i>
    <i name="pawpsdc">   1376.09046217 </i>
    <i name="pawaedc">  -1266.76182107 </i>
    <i name="eentropy">     -0.00681805 </i>
    <i name="bandstr">      3.29606930 </i>
    <i name="atom">   1243.33880873 </i>
    <i name="e_fr_energy">    -10.34149684 </i>
    <i name="e_wo_entrp">    -10.33467879 </i>
    <i name="e_0_energy">    -10.33808782 </i>
   </energy>
  </scstep>
  <scstep>
   <time name="dav">    1.32    1.32</time>
   <time name="total">    1.33    1.33</time>
   <energy>
    <i name="e_fr_energy">    -14.06686140 </i>
    <i name="e_wo_entrp">    -14.05796685 </i>
    <i name="e_0_energy">    -14.06241413 </i>
   </energy>
  </scstep>
  <scstep>
   <time name="dav">    1.22    1.22</time>
   <time name="total">    1.22    1.22</time>
   <energy>
    <i name="e_fr_energy">    -14.11097523 </i>
    <i name="e_wo_entrp">    -14.10208002 </i>
    <i name="e_0_energy">    -14.10652763 </i>
   </energy>
  </scstep>
  <scstep>
   <time name="dav">    1.28    1.28</time>
   <time name="total">    1.29    1.29</time>
   <energy>
    <i name="e_fr_energy">    -14.11284953 </i>
    <i name="e_wo_entrp">    -14.10395440 </i>
    <i name="e_0_energy">    -14.10840196 </i>
   </energy>
  </scstep>
  <scstep>
   <time name="dav">    1.01    1.01</time>
   <time name="total">    1.01    1.01</time>
   <energy>
    <i name="alphaZ">     72.03602387 </i>
    <i name="ewald">  -1138.01183584 </i>
    <i name="hartreedc">   -248.03827096 </i>
    <i name="XCdc">    -52.28411500 </i>
    <i name="pawpsdc">   1376.09046217 </i>
    <i name="pawaedc">  -1266.76182107 </i>
    <i name="eentropy">     -0.00889513 </i>
    <i name="bandstr">     -0.47321758 </i>
    <i name="atom">   1243.33880873 </i>
    <i name="e_fr_energy">    -14.11286081 </i>
    <i name="e_wo_entrp">    -14.10396568 </i>
    <i name="e_0_energy">    -14.10841324 </i>
   </energy>
  </scstep>
  <structure>
   <crystal>
    <varray name="basis" >
     <v>       1.88581811      -3.26617343      -0.00005704 </v>
     <v>       1.88581811       3.26617343       0.00005704 </v>
     <v>       0.00000000       0.00005384       5.26207358 </v>
    </varray>
    <i name="volume">     64.82252683 </i>
    <varray name="rec_basis" >
     <v>       0.26513692      -0.15308434       0.00000157 </v>
     <v>       0.26513692       0.15308434      -0.00000157 </v>
     <v>       0.00000000      -0.00000332       0.19003915 </v>
    </varray>
   </crystal>
   <varray name="positions" >
    <v>       0.00000000       0.00000000       0.00000000 </v>
    <v>       0.33333228       0.66666772       0.24697395 </v>
    <v>       0.66666772       0.33333228       0.75302605 </v>
   </varray>
  </structure>
  <varray name="forces" >
   <v>      -0.00000000      -0.00000000       0.00000000 </v>
   <v>       0.00000000      -0.00000285      -0.27857477 </v>
   <v>       0.00000000       0.00000285       0.27857477 </v>
  </varray>
  <varray name="stress" >
   <v>      12.35310968       0.00000000       0.00000000 </v>
   <v>       0.00000000      12.35190438       0.00021120 </v>
   <v>       0.00000000       0.00021120      -0.44292523 </v>
  </varray>
  <energy>
   <i name="e_fr_energy">    -14.11286081 </i>
   <i name="e_wo_entrp">    -14.10841324 </i>
   <i name="e_0_energy">     -0.00889513 </i>
  </energy>
  <time name="totalsc">    7.50    7.51</time>
  <eigenvalues>
   <array>
    <dimension dim="1">band</dimension>
    <dimension dim="2">kpoint</dimension>
    <dimension dim="3">spin</dimension>
    <field>eigene</field>
    <field>occ</field>
    <set>
     <set comment="spin 1">
      <set comment="kpoint 1">
       <r>   -9.5381    1.0000 </r>
       <r>   -7.1353    1.0000 </r>
       <r>   -1.0620    1.0000 </r>
       <r>   -0.3530    1.0000 </r>
       <r>   -0.3526    1.0000 </r>
       <r>    1.9072    1.0000 </r>
       <r>    1.9073    1.0000 </r>
       <r>    3.1851    1.0000 </r>
       <r>    4.6870    1.0000 </r>
       <r>    4.6873    1.0000 </r>
       <r>    5.9330    0.0064 </r>
       <r>    7.1499    0.0000 </r>
       <r>    7.1499    0.0000 </r>
       <r>    9.5103    0.0000 </r>
       <r>    9.5279    0.0000 </r>
       <r>   13.0195    0.0000 </r>
      </set>
      <set comment="kpoint 2">
       <r>   -9.5309    1.0000 </r>
       <r>   -7.1377    1.0000 </r>
       <r>   -1.0531    1.0000 </r>
       <r>   -0.3488    1.0000 </r>
       <r>   -0.3481    1.0000 </r>
       <r>    1.8983    1.0000 </r>
       <r>    1.9017    1.0000 </r>
       <r>    3.1710    1.0000 </r>
       <r>    4.6544    1.0000 </r>
       <r>    4.6820    1.0000 </r>
       <r>    5.9205    0.0104 </r>
       <r>    7.1216    0.0000 </r>
       <r>    7.1490    0.0000 </r>
       <r>    9.5586    0.0000 </r>
       <r>    9.5901    0.0000 </r>
       <r>   12.9848    0.0000 </r>
      </set>
      <set comment="kpoint 3">
       <r>   -9.5092    1.0000 </r>
       <r>   -7.1450    1.0000 </r>
       <r>   -1.0266    1.0000 </r>
       <r>   -0.3367    1.0000 </r>
       <r>   -0.3341    1.0000 </r>
       <r>    1.8704    1.0000 </r>
       <r>    1.8851    1.0000 </r>
       <r>    3.1283    1.0000 </r>
       <r>    4.5641    1.0000 </r>
       <r>    4.6663    1.0000 </r>
       <r>    5.8791    0.0421 </r>
       <r>    7.0515    0.0000 </r>
       <r>    7.1470    0.0000 </r>
       <r>    9.6968    0.0000 </r>
       <r>    9.7626    0.0000 </r>
       <r>   12.8810    0.0000 </r>
      </set>
      <set comment="kpoint 4">
       <r>   -9.4734    1.0000 </r>
       <r>   -7.1569    1.0000 </r>
       <r>   -0.9829    1.0000 </r>
       <r>   -0.3165    1.0000 </r>
       <r>   -0.3107    1.0000 </r>
       <r>    1.8214    1.0000 </r>
       <r>    1.8593    1.0000 </r>
       <r>    3.0563    1.0000 </r>
       <r>    4.4370    1.0000 </r>
       <r>    4.6378    1.0000 </r>
       <r>    5.7995    0.2739 </r>
       <r>    6.9719    0.0000 </r>
       <r>    7.1470    0.0000 </r>
       <r>    9.9077    0.0000 </r>
       <r>   10.0115    0.0000 </r>
       <r>   12.7393    0.0000 </r>
      </set>
      <set comment="kpoint 5">
       <r>   -9.4238    1.0000 </r>
       <r>   -7.1734    1.0000 </r>
       <r>   -0.9226    1.0000 </r>
       <r>   -0.2879    1.0000 </r>
       <r>   -0.2789    1.0000 </r>
       <r>    1.7464    1.0000 </r>
       <r>    1.8262    1.0000 </r>
       <r>    2.9566    1.0000 </r>
       <r>    4.2973    1.0000 </r>
       <r>    4.5941    1.0000 </r>
       <r>    5.6727    0.8835 </r>
       <r>    6.9117    0.0000 </r>
       <r>    7.1522    0.0000 </r>
       <r>   10.1717    0.0000 </r>
       <r>   10.2919    0.0000 </r>
       <r>   12.5959    0.0000 </r>
      </set>
      <set comment="kpoint 6">
       <r>   -9.3609    1.0000 </r>
       <r>   -7.1939    1.0000 </r>
       <r>   -0.8470    1.0000 </r>
       <r>   -0.2503    1.0000 </r>
       <r>   -0.2395    1.0000 </r>
       <r>    1.6393    1.0000 </r>
       <r>    1.7886    1.0000 </r>
       <r>    2.8373    1.0000 </r>
       <r>    4.1639    1.0000 </r>
       <r>    4.5329    1.0000 </r>
       <r>    5.4990    0.9999 </r>
       <r>    6.8823    0.0000 </r>
       <r>    7.1663    0.0000 </r>
       <r>   10.4718    0.0000 </r>
       <r>   10.5460    0.0000 </r>
       <r>   12.5035    0.0000 </r>
      </set>
      <set comment="kpoint 7">
       <r>   -9.2855    1.0000 </r>
       <r>   -7.2184    1.0000 </r>
       <r>   -0.7579    1.0000 </r>
       <r>   -0.2030    1.0000 </r>
       <r>   -0.1935    1.0000 </r>
       <r>    1.4939    1.0000 </r>
       <r>    1.7497    1.0000 </r>
       <r>    2.7131    1.0000 </r>
       <r>    4.0449    1.0000 </r>
       <r>    4.4525    1.0000 </r>
       <r>    5.2890    1.0000 </r>
       <r>    6.8781    0.0000 </r>
       <r>    7.1918    0.0000 </r>
       <r>   10.7042    0.0000 </r>
       <r>   10.7935    0.0000 </r>
       <r>   12.5267    0.0000 </r>
      </set>
      <set comment="kpoint 8">
       <r>   -9.1986    1.0000 </r>
       <r>   -7.2463    1.0000 </r>
       <r>   -0.6586    1.0000 </r>
       <r>   -0.1449    1.0000 </r>
       <r>   -0.1425    1.0000 </r>
       <r>    1.3089    1.0000 </r>
       <r>    1.7129    1.0000 </r>
       <r>    2.5991    1.0000 </r>
       <r>    3.9391    1.0000 </r>
       <r>    4.3527    1.0000 </r>
       <r>    5.0565    1.0000 </r>
       <r>    6.8857    0.0000 </r>
       <r>    7.2294    0.0000 </r>
       <r>   10.7283    0.0000 </r>
       <r>   11.1219    0.0000 </r>
       <r>   12.6945    0.0000 </r>
      </set>
      <set comment="kpoint 9">
       <r>   -9.1011    1.0000 </r>
       <r>   -7.2774    1.0000 </r>
       <r>   -0.5548    1.0000 </r>
       <r>   -0.0883    1.0000 </r>
       <r>   -0.0736    1.0000 </r>
       <r>    1.0926    1.0000 </r>
       <r>    1.6819    1.0000 </r>
       <r>    2.5043    1.0000 </r>
       <r>    3.8402    1.0000 </r>
       <r>    4.2346    1.0000 </r>
       <r>    4.8140    1.0000 </r>
       <r>    6.8917    0.0000 </r>
       <r>    7.2784    0.0000 </r>
       <r>   10.6514    0.0000 </r>
       <r>   11.4390    0.0000 </r>
       <r>   12.9539    0.0000 </r>
      </set>
      <set comment="kpoint 10">
       <r>   -8.9946    1.0000 </r>
       <r>   -7.3114    1.0000 </r>
       <r>   -0.4569    1.0000 </r>
       <r>   -0.0331    1.0000 </r>
       <r>    0.0137    1.0000 </r>
       <r>    0.8628    1.0000 </r>
       <r>    1.6602    1.0000 </r>
       <r>    2.4297    1.0000 </r>
       <r>    3.7401    1.0000 </r>
       <r>    4.1002    1.0000 </r>
       <r>    4.5713    1.0000 </r>
       <r>    6.8850    0.0000 </r>
       <r>    7.3368    0.0000 </r>
       <r>   10.5329    0.0000 </r>
       <r>   11.7168    0.0000 </r>
       <r>   13.2026    0.0000 </r>
      </set>
      <set comment="kpoint 11">
       <r>   -8.8804    1.0000 </r>
       <r>   -7.3480    1.0000 </r>
       <r>   -0.3832    1.0000 </r>
       <r>    0.0207    1.0000 </r>
       <r>    0.1193    1.0000 </r>
       <r>    0.6482    1.0000 </r>
       <r>    1.6518    1.0000 </r>
       <r>    2.3723    1.0000 </r>
       <r>    3.6308    1.0000 </r>
       <r>    3.9521    1.0000 </r>
       <r>    4.3363    1.0000 </r>
       <r>    6.8587    0.0000 </r>
       <r>    7.4016    0.0000 </r>
       <r>   10.4144    0.0000 </r>
       <r>   11.9161    0.0000 </r>
       <r>   13.3317    0.0000 </r>
      </set>
      <set comment="kpoint 12">
       <r>   -8.7606    1.0000 </r>
       <r>   -7.3872    1.0000 </r>
       <r>   -0.3650    1.0000 </r>
       <r>    0.0706    1.0000 </r>
       <r>    0.2346    1.0000 </r>
       <r>    0.4987    1.0000 </r>
       <r>    1.6598    1.0000 </r>
       <r>    2.3275    1.0000 </r>
       <r>    3.5056    1.0000 </r>
       <r>    3.7931    1.0000 </r>
       <r>    4.1145    1.0000 </r>
       <r>    6.8111    0.0000 </r>
       <r>    7.4698    0.0000 </r>
       <r>   10.3176    0.0000 </r>
       <r>   12.0037    0.0000 </r>
       <r>   13.3045    0.0000 </r>
      </set>
      <set comment="kpoint 13">
       <r>   -8.6371    1.0000 </r>
       <r>   -7.4290    1.0000 </r>
       <r>   -0.4334    1.0000 </r>
       <r>    0.1144    1.0000 </r>
       <r>    0.3064    1.0000 </r>
       <r>    0.5072    1.0000 </r>
       <r>    1.6869    1.0000 </r>
       <r>    2.2919    1.0000 </r>
       <r>    3.3622    1.0000 </r>
       <r>    3.6259    1.0000 </r>
       <r>    3.9079    1.0000 </r>
       <r>    6.7452    0.0000 </r>
       <r>    7.5380    0.0000 </r>
       <r>   10.2506    0.0000 </r>
       <r>   11.9849    0.0000 </r>
       <r>   13.2029    0.0000 </r>
      </set>
      <set comment="kpoint 14">
       <r>   -8.5121    1.0000 </r>
       <r>   -7.4737    1.0000 </r>
       <r>   -0.5761    1.0000 </r>
       <r>    0.1507    1.0000 </r>
       <r>    0.3445    1.0000 </r>
       <r>    0.6562    1.0000 </r>
       <r>    1.7350    1.0000 </r>
       <r>    2.2625    1.0000 </r>
       <r>    3.2051    1.0000 </r>
       <r>    3.4533    1.0000 </r>
       <r>    3.7129    1.0000 </r>
       <r>    6.6686    0.0000 </r>
       <r>    7.6033    0.0000 </r>
       <r>   10.2130    0.0000 </r>
       <r>   11.8987    0.0000 </r>
       <r>   13.0891    0.0000 </r>
      </set>
      <set comment="kpoint 15">
       <r>   -8.3881    1.0000 </r>
       <r>   -7.5218    1.0000 </r>
       <r>   -0.7472    1.0000 </r>
       <r>    0.1790    1.0000 </r>
       <r>    0.4053    1.0000 </r>
       <r>    0.8451    1.0000 </r>
       <r>    1.8044    1.0000 </r>
       <r>    2.2372    1.0000 </r>
       <r>    3.0441    1.0000 </r>
       <r>    3.2775    1.0000 </r>
       <r>    3.5233    1.0000 </r>
       <r>    6.5900    0.0000 </r>
       <r>    7.6630    0.0000 </r>
       <r>   10.1993    0.0000 </r>
       <r>   11.7839    0.0000 </r>
       <r>   12.9847    0.0000 </r>
      </set>
      <set comment="kpoint 16">
       <r>   -8.2674    1.0000 </r>
       <r>   -7.5742    1.0000 </r>
       <r>   -0.9128    1.0000 </r>
       <r>    0.1995    1.0000 </r>
       <r>    0.4799    1.0000 </r>
       <r>    1.0458    1.0000 </r>
       <r>    1.8942    1.0000 </r>
       <r>    2.2155    1.0000 </r>
       <r>    2.8902    1.0000 </r>
       <r>    3.1007    1.0000 </r>
       <r>    3.3345    1.0000 </r>
       <r>    6.5176    0.0000 </r>
       <r>    7.7149    0.0000 </r>
       <r>   10.2021    0.0000 </r>
       <r>   11.6661    0.0000 </r>
       <r>   12.8973    0.0000 </r>
      </set>
      <set comment="kpoint 17">
       <r>   -8.1524    1.0000 </r>
       <r>   -7.6316    1.0000 </r>
       <r>   -1.0543    1.0000 </r>
       <r>    0.2135    1.0000 </r>
       <r>    0.5557    1.0000 </r>
       <r>    1.2439    1.0000 </r>
       <r>    2.0029    1.0000 </r>
       <r>    2.2002    1.0000 </r>
       <r>    2.7524    1.0000 </r>
       <r>    2.9252    1.0000 </r>
       <r>    3.1494    1.0000 </r>
       <r>    6.4576    0.0000 </r>
       <r>    7.7571    0.0000 </r>
       <r>   10.2138    0.0000 </r>
       <r>   11.5614    0.0000 </r>
       <r>   12.8295    0.0000 </r>
      </set>
      <set comment="kpoint 18">
       <r>   -8.0453    1.0000 </r>
       <r>   -7.6950    1.0000 </r>
       <r>   -1.1615    1.0000 </r>
       <r>    0.2222    1.0000 </r>
       <r>    0.6217    1.0000 </r>
       <r>    1.4202    1.0000 </r>
       <r>    2.1277    1.0000 </r>
       <r>    2.2011    1.0000 </r>
       <r>    2.6312    1.0000 </r>
       <r>    2.7530    1.0000 </r>
       <r>    2.9825    1.0000 </r>
       <r>    6.4134    0.0000 </r>
       <r>    7.7882    0.0000 </r>
       <r>   10.2277    0.0000 </r>
       <r>   11.4797    0.0000 </r>
       <r>   12.7815    0.0000 </r>
      </set>
      <set comment="kpoint 19">
       <r>   -7.9489    1.0000 </r>
       <r>   -7.7640    1.0000 </r>
       <r>   -1.2281    1.0000 </r>
       <r>    0.2268    1.0000 </r>
       <r>    0.6672    1.0000 </r>
       <r>    1.5454    1.0000 </r>
       <r>    2.2325    1.0000 </r>
       <r>    2.2649    1.0000 </r>
       <r>    2.5211    1.0000 </r>
       <r>    2.5876    1.0000 </r>
       <r>    2.8633    1.0000 </r>
       <r>    6.3866    0.0000 </r>
       <r>    7.8073    0.0000 </r>
       <r>   10.2384    0.0000 </r>
       <r>   11.4280    0.0000 </r>
       <r>   12.7530    0.0000 </r>
      </set>
      <set comment="kpoint 20">
       <r>   -7.8865    1.0000 </r>
       <r>   -7.8171    1.0000 </r>
       <r>   -1.2507    1.0000 </r>
       <r>    0.2283    1.0000 </r>
       <r>    0.6836    1.0000 </r>
       <r>    1.5906    1.0000 </r>
       <r>    2.2685    1.0000 </r>
       <r>    2.3810    1.0000 </r>
       <r>    2.4568    1.0000 </r>
       <r>    2.4622    1.0000 </r>
       <r>    2.8209    1.0000 </r>
       <r>    6.3776    0.0000 </r>
       <r>    7.8137    0.0000 </r>
       <r>   10.2424    0.0000 </r>
       <r>   11.4103    0.0000 </r>
       <r>   12.7436    0.0000 </r>
      </set>
      <set comment="kpoint 21">
       <r>   -7.8865    1.0000 </r>
       <r>   -7.8171    1.0000 </r>
       <r>   -1.2507    1.0000 </r>
       <r>    0.2283    1.0000 </r>
       <r>    0.6836    1.0000 </r>
       <r>    1.5906    1.0000 </r>
       <r>    2.2685    1.0000 </r>
       <r>    2.3810    1.0000 </r>
       <r>    2.4568    1.0000 </r>
       <r>    2.4622    1.0000 </r>
       <r>    2.8209    1.0000 </r>
       <r>    6.3776    0.0000 </r>
       <r>    7.8137    0.0000 </r>
       <r>   10.2424    0.0000 </r>
       <r>   11.4103    0.0000 </r>
       <r>   12.7436    0.0000 </r>
      </set>
      <set comment="kpoint 22">
       <r>   -7.8861    1.0000 </r>
       <r>   -7.8162    1.0000 </r>
       <r>   -1.2484    1.0000 </r>
       <r>    0.2247    1.0000 </r>
       <r>    0.6850    1.0000 </r>
       <r>    1.5895    1.0000 </r>
       <r>    2.2608    1.0000 </r>
       <r>    2.3830    1.0000 </r>
       <r>    2.4002    1.0000 </r>
       <r>    2.4607    1.0000 </r>
       <r>    2.8911    1.0000 </r>
       <r>    6.3747    0.0000 </r>
       <r>    7.7936    0.0000 </r>
       <r>   10.2410    0.0000 </r>
       <r>   11.4351    0.0000 </r>
       <r>   12.6855    0.0000 </r>
      </set>
      <set comment="kpoint 23">
       <r>   -7.8848    1.0000 </r>
       <r>   -7.8137    1.0000 </r>
       <r>   -1.2417    1.0000 </r>
       <r>    0.2145    1.0000 </r>
       <r>    0.6890    1.0000 </r>
       <r>    1.5855    1.0000 </r>
       <r>    2.2341    1.0000 </r>
       <r>    2.2499    1.0000 </r>
       <r>    2.4456    1.0000 </r>
       <r>    2.4565    1.0000 </r>
       <r>    3.0288    1.0000 </r>
       <r>    6.3658    0.0000 </r>
       <r>    7.7352    0.0000 </r>
       <r>   10.2365    0.0000 </r>
       <r>   11.5077    0.0000 </r>
       <r>   12.5741    0.0000 </r>
      </set>
      <set comment="kpoint 24">
       <r>   -7.8827    1.0000 </r>
       <r>   -7.8095    1.0000 </r>
       <r>   -1.2306    1.0000 </r>
       <r>    0.1984    1.0000 </r>
       <r>    0.6956    1.0000 </r>
       <r>    1.5775    1.0000 </r>
       <r>    2.0655    1.0000 </r>
       <r>    2.2485    1.0000 </r>
       <r>    2.4494    1.0000 </r>
       <r>    2.5047    1.0000 </r>
       <r>    3.1791    1.0000 </r>
       <r>    6.3509    0.0000 </r>
       <r>    7.6432    0.0000 </r>
       <r>   10.2279    0.0000 </r>
       <r>   11.6232    0.0000 </r>
       <r>   12.4637    0.0000 </r>
      </set>
      <set comment="kpoint 25">
       <r>   -7.8798    1.0000 </r>
       <r>   -7.8038    1.0000 </r>
       <r>   -1.2151    1.0000 </r>
       <r>    0.1774    1.0000 </r>
       <r>    0.7042    1.0000 </r>
       <r>    1.5643    1.0000 </r>
       <r>    1.8914    1.0000 </r>
       <r>    2.2615    1.0000 </r>
       <r>    2.4395    1.0000 </r>
       <r>    2.5725    1.0000 </r>
       <r>    3.3280    1.0000 </r>
       <r>    6.3300    0.0000 </r>
       <r>    7.5240    0.0000 </r>
       <r>   10.2133    0.0000 </r>
       <r>   11.7751    0.0000 </r>
       <r>   12.3720    0.0000 </r>
      </set>
      <set comment="kpoint 26">
       <r>   -7.8760    1.0000 </r>
       <r>   -7.7967    1.0000 </r>
       <r>   -1.1956    1.0000 </r>
       <r>    0.1527    1.0000 </r>
       <r>    0.7143    1.0000 </r>
       <r>    1.5456    1.0000 </r>
       <r>    1.7174    1.0000 </r>
       <r>    2.2898    1.0000 </r>
       <r>    2.4270    1.0000 </r>
       <r>    2.6469    1.0000 </r>
       <r>    3.4705    1.0000 </r>
       <r>    6.3031    0.0000 </r>
       <r>    7.3844    0.0000 </r>
       <r>   10.1914    0.0000 </r>
       <r>   11.9566    0.0000 </r>
       <r>   12.3065    0.0000 </r>
      </set>
      <set comment="kpoint 27">
       <r>   -7.8714    1.0000 </r>
       <r>   -7.7884    1.0000 </r>
       <r>   -1.1720    1.0000 </r>
       <r>    0.1256    1.0000 </r>
       <r>    0.7242    1.0000 </r>
       <r>    1.5218    1.0000 </r>
       <r>    1.5474    1.0000 </r>
       <r>    2.3322    1.0000 </r>
       <r>    2.4119    1.0000 </r>
       <r>    2.7266    1.0000 </r>
       <r>    3.6040    1.0000 </r>
       <r>    6.2702    0.0000 </r>
       <r>    7.2305    0.0000 </r>
       <r>   10.1609    0.0000 </r>
       <r>   12.1610    0.0000 </r>
       <r>   12.2711    0.0000 </r>
      </set>
      <set comment="kpoint 28">
       <r>   -7.8660    1.0000 </r>
       <r>   -7.7793    1.0000 </r>
       <r>   -1.1448    1.0000 </r>
       <r>    0.0975    1.0000 </r>
       <r>    0.7314    1.0000 </r>
       <r>    1.3858    1.0000 </r>
       <r>    1.4943    1.0000 </r>
       <r>    2.3865    1.0000 </r>
       <r>    2.3944    1.0000 </r>
       <r>    2.8109    1.0000 </r>
       <r>    3.7267    1.0000 </r>
       <r>    6.2316    0.0000 </r>
       <r>    7.0678    0.0000 </r>
       <r>   10.1220    0.0000 </r>
       <r>   12.2674    0.0000 </r>
       <r>   12.3828    0.0000 </r>
      </set>
      <set comment="kpoint 29">
       <r>   -7.8599    1.0000 </r>
       <r>   -7.7696    1.0000 </r>
       <r>   -1.1144    1.0000 </r>
       <r>    0.0693    1.0000 </r>
       <r>    0.7300    1.0000 </r>
       <r>    1.2399    1.0000 </r>
       <r>    1.4643    1.0000 </r>
       <r>    2.3745    1.0000 </r>
       <r>    2.4499    1.0000 </r>
       <r>    2.8990    1.0000 </r>
       <r>    3.8370    1.0000 </r>
       <r>    6.1877    0.0000 </r>
       <r>    6.9008    0.0000 </r>
       <r>   10.0758    0.0000 </r>
       <r>   12.2950    0.0000 </r>
       <r>   12.6168    0.0000 </r>
      </set>
      <set comment="kpoint 30">
       <r>   -7.8529    1.0000 </r>
       <r>   -7.7596    1.0000 </r>
       <r>   -1.0810    1.0000 </r>
       <r>    0.0423    1.0000 </r>
       <r>    0.7082    1.0000 </r>
       <r>    1.1227    1.0000 </r>
       <r>    1.4331    1.0000 </r>
       <r>    2.3526    1.0000 </r>
       <r>    2.5197    1.0000 </r>
       <r>    2.9904    1.0000 </r>
       <r>    3.9336    1.0000 </r>
       <r>    6.1392    0.0000 </r>
       <r>    6.7336    0.0000 </r>
       <r>   10.0245    0.0000 </r>
       <r>   12.3516    0.0000 </r>
       <r>   12.8583    0.0000 </r>
      </set>
      <set comment="kpoint 31">
       <r>   -7.8451    1.0000 </r>
       <r>   -7.7497    1.0000 </r>
       <r>   -1.0454    1.0000 </r>
       <r>    0.0171    1.0000 </r>
       <r>    0.6507    1.0000 </r>
       <r>    1.0508    1.0000 </r>
       <r>    1.4018    1.0000 </r>
       <r>    2.3289    1.0000 </r>
       <r>    2.5934    1.0000 </r>
       <r>    3.0844    1.0000 </r>
       <r>    4.0151    1.0000 </r>
       <r>    6.0873    0.0000 </r>
       <r>    6.5695    0.0000 </r>
       <r>    9.9709    0.0000 </r>
       <r>   12.4335    0.0000 </r>
       <r>   13.1030    0.0000 </r>
      </set>
      <set comment="kpoint 32">
       <r>   -7.8366    1.0000 </r>
       <r>   -7.7404    1.0000 </r>
       <r>   -1.0082    1.0000 </r>
       <r>   -0.0057    1.0000 </r>
       <r>    0.5576    1.0000 </r>
       <r>    1.0250    1.0000 </r>
       <r>    1.3712    1.0000 </r>
       <r>    2.3038    1.0000 </r>
       <r>    2.6686    1.0000 </r>
       <r>    3.1807    1.0000 </r>
       <r>    4.0802    1.0000 </r>
       <r>    6.0332    0.0000 </r>
       <r>    6.4117    0.0000 </r>
       <r>    9.9175    0.0000 </r>
       <r>   12.5362    0.0000 </r>
       <r>   13.3464    0.0000 </r>
      </set>
      <set comment="kpoint 33">
       <r>   -7.8274    1.0000 </r>
       <r>   -7.7320    1.0000 </r>
       <r>   -0.9704    1.0000 </r>
       <r>   -0.0252    1.0000 </r>
       <r>    0.4470    1.0000 </r>
       <r>    1.0286    1.0000 </r>
       <r>    1.3419    1.0000 </r>
       <r>    2.2778    1.0000 </r>
       <r>    2.7431    1.0000 </r>
       <r>    3.2783    1.0000 </r>
       <r>    4.1278    1.0000 </r>
       <r>    5.9789    0.0008 </r>
       <r>    6.2634    0.0000 </r>
       <r>    9.8669    0.0000 </r>
       <r>   12.6545    0.0000 </r>
       <r>   13.5833    0.0000 </r>
      </set>
      <set comment="kpoint 34">
       <r>   -7.8174    1.0000 </r>
       <r>   -7.7252    1.0000 </r>
       <r>   -0.9330    1.0000 </r>
       <r>   -0.0414    1.0000 </r>
       <r>    0.3347    1.0000 </r>
       <r>    1.0471    1.0000 </r>
       <r>    1.3144    1.0000 </r>
       <r>    2.2516    1.0000 </r>
       <r>    2.8145    1.0000 </r>
       <r>    3.3763    1.0000 </r>
       <r>    4.1565    1.0000 </r>
       <r>    5.9264    0.0083 </r>
       <r>    6.1274    0.0000 </r>
       <r>    9.8209    0.0000 </r>
       <r>   12.7823    0.0000 </r>
       <r>   13.8078    0.0000 </r>
      </set>
      <set comment="kpoint 35">
       <r>   -7.8066    1.0000 </r>
       <r>   -7.7202    1.0000 </r>
       <r>   -0.8977    1.0000 </r>
       <r>   -0.0539    1.0000 </r>
       <r>    0.2294    1.0000 </r>
       <r>    1.0725    1.0000 </r>
       <r>    1.2888    1.0000 </r>
       <r>    2.2258    1.0000 </r>
       <r>    2.8806    1.0000 </r>
       <r>    3.4739    1.0000 </r>
       <r>    4.1656    1.0000 </r>
       <r>    5.8777    0.0439 </r>
       <r>    6.0071    0.0002 </r>
       <r>    9.7808    0.0000 </r>
       <r>   12.9124    0.0000 </r>
       <r>   14.0122    0.0000 </r>
      </set>
      <set comment="kpoint 36">
       <r>   -7.7952    1.0000 </r>
       <r>   -7.7178    1.0000 </r>
       <r>   -0.8660    1.0000 </r>
       <r>   -0.0623    1.0000 </r>
       <r>    0.1363    1.0000 </r>
       <r>    1.1011    1.0000 </r>
       <r>    1.2655    1.0000 </r>
       <r>    2.2014    1.0000 </r>
       <r>    2.9391    1.0000 </r>
       <r>    3.5701    1.0000 </r>
       <r>    4.1547    1.0000 </r>
       <r>    5.8347    0.1360 </r>
       <r>    5.9054    0.0179 </r>
       <r>    9.7476    0.0000 </r>
       <r>   13.0365    0.0000 </r>
       <r>   14.1874    0.0000 </r>
      </set>
      <set comment="kpoint 37">
       <r>   -7.7830    1.0000 </r>
       <r>   -7.7183    1.0000 </r>
       <r>   -0.8399    1.0000 </r>
       <r>   -0.0668    1.0000 </r>
       <r>    0.0593    1.0000 </r>
       <r>    1.1299    1.0000 </r>
       <r>    1.2446    1.0000 </r>
       <r>    2.1798    1.0000 </r>
       <r>    2.9875    1.0000 </r>
       <r>    3.6642    1.0000 </r>
       <r>    4.1242    1.0000 </r>
       <r>    5.7987    0.2776 </r>
       <r>    5.8256    0.1662 </r>
       <r>    9.7217    0.0000 </r>
       <r>   13.1449    0.0000 </r>
       <r>   14.3234    0.0000 </r>
      </set>
      <set comment="kpoint 38">
       <r>   -7.7702    1.0000 </r>
       <r>   -7.7223    1.0000 </r>
       <r>   -0.8212    1.0000 </r>
       <r>   -0.0671    1.0000 </r>
       <r>    0.0010    1.0000 </r>
       <r>    1.1568    1.0000 </r>
       <r>    1.2260    1.0000 </r>
       <r>    2.1622    1.0000 </r>
       <r>    3.0236    1.0000 </r>
       <r>    3.7556    1.0000 </r>
       <r>    4.0752    1.0000 </r>
       <r>    5.7700    0.4273 </r>
       <r>    5.7706    0.4239 </r>
       <r>    9.7032    0.0000 </r>
       <r>   13.2275    0.0000 </r>
       <r>   14.4120    0.0000 </r>
      </set>
      <set comment="kpoint 39">
       <r>   -7.7567    1.0000 </r>
       <r>   -7.7302    1.0000 </r>
       <r>   -0.8107    1.0000 </r>
       <r>   -0.0634    1.0000 </r>
       <r>   -0.0371    1.0000 </r>
       <r>    1.1796    1.0000 </r>
       <r>    1.2099    1.0000 </r>
       <r>    2.1504    1.0000 </r>
       <r>    3.0457    1.0000 </r>
       <r>    3.8442    1.0000 </r>
       <r>    4.0098    1.0000 </r>
       <r>    5.7404    0.5931 </r>
       <r>    5.7502    0.5383 </r>
       <r>    9.6923    0.0000 </r>
       <r>   13.2771    0.0000 </r>
       <r>   14.4509    0.0000 </r>
      </set>
      <set comment="kpoint 40">
       <r>   -7.7426    1.0000 </r>
       <r>   -7.7424    1.0000 </r>
       <r>   -0.8077    1.0000 </r>
       <r>   -0.0560    1.0000 </r>
       <r>   -0.0556    1.0000 </r>
       <r>    1.1959    1.0000 </r>
       <r>    1.1961    1.0000 </r>
       <r>    2.1460    1.0000 </r>
       <r>    3.0530    1.0000 </r>
       <r>    3.9302    1.0000 </r>
       <r>    3.9306    1.0000 </r>
       <r>    5.7370    0.6113 </r>
       <r>    5.7371    0.6108 </r>
       <r>    9.6887    0.0000 </r>
       <r>   13.2926    0.0000 </r>
       <r>   14.4457    0.0000 </r>
      </set>
      <set comment="kpoint 41">
       <r>   -7.7426    1.0000 </r>
       <r>   -7.7424    1.0000 </r>
       <r>   -0.8077    1.0000 </r>
       <r>   -0.0560    1.0000 </r>
       <r>   -0.0556    1.0000 </r>
       <r>    1.1959    1.0000 </r>
       <r>    1.1961    1.0000 </r>
       <r>    2.1460    1.0000 </r>
       <r>    3.0530    1.0000 </r>
       <r>    3.9302    1.0000 </r>
       <r>    3.9306    1.0000 </r>
       <r>    5.7370    0.6113 </r>
       <r>    5.7371    0.6108 </r>
       <r>    9.6887    0.0000 </r>
       <r>   13.2926    0.0000 </r>
       <r>   14.4457    0.0000 </r>
      </set>
      <set comment="kpoint 42">
       <r>   -7.7814    1.0000 </r>
       <r>   -7.7120    1.0000 </r>
       <r>   -0.8130    1.0000 </r>
       <r>   -0.0457    1.0000 </r>
       <r>   -0.0297    1.0000 </r>
       <r>    1.1746    1.0000 </r>
       <r>    1.2035    1.0000 </r>
       <r>    2.1656    1.0000 </r>
       <r>    3.0266    1.0000 </r>
       <r>    3.7429    1.0000 </r>
       <r>    4.0977    1.0000 </r>
       <r>    5.7295    0.6514 </r>
       <r>    5.8041    0.2528 </r>
       <r>    9.7026    0.0000 </r>
       <r>   13.2482    0.0000 </r>
       <r>   14.3470    0.0000 </r>
      </set>
      <set comment="kpoint 43">
       <r>   -7.8406    1.0000 </r>
       <r>   -7.6792    1.0000 </r>
       <r>   -0.8104    1.0000 </r>
       <r>    0.0015    1.0000 </r>
       <r>    0.0081    1.0000 </r>
       <r>    1.1593    1.0000 </r>
       <r>    1.1720    1.0000 </r>
       <r>    2.2238    1.0000 </r>
       <r>    2.9620    1.0000 </r>
       <r>    3.5384    1.0000 </r>
       <r>    4.2602    1.0000 </r>
       <r>    5.7412    0.5886 </r>
       <r>    5.9487    0.0034 </r>
       <r>    9.7429    0.0000 </r>
       <r>   13.1597    0.0000 </r>
       <r>   14.1791    0.0000 </r>
      </set>
      <set comment="kpoint 44">
       <r>   -7.9207    1.0000 </r>
       <r>   -7.6440    1.0000 </r>
       <r>   -0.7785    1.0000 </r>
       <r>    0.0536    1.0000 </r>
       <r>    0.0580    1.0000 </r>
       <r>    1.1053    1.0000 </r>
       <r>    1.1472    1.0000 </r>
       <r>    2.3096    1.0000 </r>
       <r>    2.8874    1.0000 </r>
       <r>    3.3437    1.0000 </r>
       <r>    4.4187    1.0000 </r>
       <r>    5.7677    0.4396 </r>
       <r>    6.1418    0.0000 </r>
       <r>    9.8074    0.0000 </r>
       <r>   13.0706    0.0000 </r>
       <r>   13.9866    0.0000 </r>
      </set>
      <set comment="kpoint 45">
       <r>   -8.0202    1.0000 </r>
       <r>   -7.6066    1.0000 </r>
       <r>   -0.7075    1.0000 </r>
       <r>    0.1012    1.0000 </r>
       <r>    0.1047    1.0000 </r>
       <r>    1.0134    1.0000 </r>
       <r>    1.1359    1.0000 </r>
       <r>    2.3978    1.0000 </r>
       <r>    2.8302    1.0000 </r>
       <r>    3.1897    1.0000 </r>
       <r>    4.5710    1.0000 </r>
       <r>    5.8078    0.2363 </r>
       <r>    6.3573    0.0000 </r>
       <r>    9.8947    0.0000 </r>
       <r>   13.0016    0.0000 </r>
       <r>   13.7785    0.0000 </r>
      </set>
      <set comment="kpoint 46">
       <r>   -8.1367    1.0000 </r>
       <r>   -7.5674    1.0000 </r>
       <r>   -0.5961    1.0000 </r>
       <r>    0.1286    1.0000 </r>
       <r>    0.1432    1.0000 </r>
       <r>    0.9067    1.0000 </r>
       <r>    1.1254    1.0000 </r>
       <r>    2.4514    1.0000 </r>
       <r>    2.8114    1.0000 </r>
       <r>    3.1154    1.0000 </r>
       <r>    4.7141    1.0000 </r>
       <r>    5.8620    0.0688 </r>
       <r>    6.5734    0.0000 </r>
       <r>   10.0033    0.0000 </r>
       <r>   12.9634    0.0000 </r>
       <r>   13.5527    0.0000 </r>
      </set>
      <set comment="kpoint 47">
       <r>   -8.2664    1.0000 </r>
       <r>   -7.5266    1.0000 </r>
       <r>   -0.4495    1.0000 </r>
       <r>    0.1209    1.0000 </r>
       <r>    0.1702    1.0000 </r>
       <r>    0.7968    1.0000 </r>
       <r>    1.1200    1.0000 </r>
       <r>    2.4473    1.0000 </r>
       <r>    2.8429    1.0000 </r>
       <r>    3.1429    1.0000 </r>
       <r>    4.8451    1.0000 </r>
       <r>    5.9321    0.0066 </r>
       <r>    6.7725    0.0000 </r>
       <r>   10.1317    0.0000 </r>
       <r>   12.9622    0.0000 </r>
       <r>   13.3050    0.0000 </r>
      </set>
      <set comment="kpoint 48">
       <r>   -8.4052    1.0000 </r>
       <r>   -7.4847    1.0000 </r>
       <r>   -0.2802    1.0000 </r>
       <r>    0.0768    1.0000 </r>
       <r>    0.1741    1.0000 </r>
       <r>    0.6996    1.0000 </r>
       <r>    1.1283    1.0000 </r>
       <r>    2.4126    1.0000 </r>
       <r>    2.9284    1.0000 </r>
       <r>    3.2415    1.0000 </r>
       <r>    4.9615    1.0000 </r>
       <r>    6.0200    0.0001 </r>
       <r>    6.9402    0.0000 </r>
       <r>   10.2780    0.0000 </r>
       <r>   13.0029    0.0000 </r>
       <r>   13.0381    0.0000 </r>
      </set>
      <set comment="kpoint 49">
       <r>   -8.5487    1.0000 </r>
       <r>   -7.4421    1.0000 </r>
       <r>   -0.1159    1.0000 </r>
       <r>   -0.0031    1.0000 </r>
       <r>    0.1513    1.0000 </r>
       <r>    0.6434    1.0000 </r>
       <r>    1.1581    1.0000 </r>
       <r>    2.3831    1.0000 </r>
       <r>    3.0645    1.0000 </r>
       <r>    3.3681    1.0000 </r>
       <r>    5.0625    1.0000 </r>
       <r>    6.1268    0.0000 </r>
       <r>    7.0657    0.0000 </r>
       <r>   10.4390    0.0000 </r>
       <r>   12.7587    0.0000 </r>
       <r>   13.0871    0.0000 </r>
      </set>
      <set comment="kpoint 50">
       <r>   -8.6928    1.0000 </r>
       <r>   -7.3995    1.0000 </r>
       <r>   -0.1181    1.0000 </r>
       <r>   -0.0023    1.0000 </r>
       <r>    0.1045    1.0000 </r>
       <r>    0.6754    1.0000 </r>
       <r>    1.2111    1.0000 </r>
       <r>    2.3743    1.0000 </r>
       <r>    3.2439    1.0000 </r>
       <r>    3.4987    1.0000 </r>
       <r>    5.1480    1.0000 </r>
       <r>    6.2513    0.0000 </r>
       <r>    7.1425    0.0000 </r>
       <r>   10.6102    0.0000 </r>
       <r>   12.4702    0.0000 </r>
       <r>   13.1950    0.0000 </r>
      </set>
      <set comment="kpoint 51">
       <r>   -8.8337    1.0000 </r>
       <r>   -7.3576    1.0000 </r>
       <r>   -0.2496    1.0000 </r>
       <r>    0.0179    1.0000 </r>
       <r>    0.0420    1.0000 </r>
       <r>    0.8215    1.0000 </r>
       <r>    1.2834    1.0000 </r>
       <r>    2.3901    1.0000 </r>
       <r>    3.4572    1.0000 </r>
       <r>    3.6232    1.0000 </r>
       <r>    5.2203    1.0000 </r>
       <r>    6.3898    0.0000 </r>
       <r>    7.1706    0.0000 </r>
       <r>   10.7828    0.0000 </r>
       <r>   12.1719    0.0000 </r>
       <r>   13.0872    0.0000 </r>
      </set>
      <set comment="kpoint 52">
       <r>   -8.9679    1.0000 </r>
       <r>   -7.3171    1.0000 </r>
       <r>   -0.3903    1.0000 </r>
       <r>   -0.0277    1.0000 </r>
       <r>   -0.0202    1.0000 </r>
       <r>    1.0370    1.0000 </r>
       <r>    1.3690    1.0000 </r>
       <r>    2.4323    1.0000 </r>
       <r>    3.6928    1.0000 </r>
       <r>    3.7394    1.0000 </r>
       <r>    5.2839    1.0000 </r>
       <r>    6.5363    0.0000 </r>
       <r>    7.1564    0.0000 </r>
       <r>   10.9384    0.0000 </r>
       <r>   11.8610    0.0000 </r>
       <r>   12.7463    0.0000 </r>
      </set>
      <set comment="kpoint 53">
       <r>   -9.0926    1.0000 </r>
       <r>   -7.2789    1.0000 </r>
       <r>   -0.5298    1.0000 </r>
       <r>   -0.0975    1.0000 </r>
       <r>   -0.0796    1.0000 </r>
       <r>    1.2670    1.0000 </r>
       <r>    1.4621    1.0000 </r>
       <r>    2.5040    1.0000 </r>
       <r>    3.8504    1.0000 </r>
       <r>    3.9362    1.0000 </r>
       <r>    5.3468    1.0000 </r>
       <r>    6.6828    0.0000 </r>
       <r>    7.1115    0.0000 </r>
       <r>   11.0315    0.0000 </r>
       <r>   11.5355    0.0000 </r>
       <r>   12.4272    0.0000 </r>
      </set>
      <set comment="kpoint 54">
       <r>   -9.2052    1.0000 </r>
       <r>   -7.2437    1.0000 </r>
       <r>   -0.6606    1.0000 </r>
       <r>   -0.1624    1.0000 </r>
       <r>   -0.1430    1.0000 </r>
       <r>    1.4746    1.0000 </r>
       <r>    1.5574    1.0000 </r>
       <r>    2.6082    1.0000 </r>
       <r>    3.9628    1.0000 </r>
       <r>    4.1683    1.0000 </r>
       <r>    5.4205    1.0000 </r>
       <r>    6.8202    0.0000 </r>
       <r>    7.0517    0.0000 </r>
       <r>   10.9724    0.0000 </r>
       <r>   11.1946    0.0000 </r>
       <r>   12.2567    0.0000 </r>
      </set>
      <set comment="kpoint 55">
       <r>   -9.3037    1.0000 </r>
       <r>   -7.2123    1.0000 </r>
       <r>   -0.7776    1.0000 </r>
       <r>   -0.2196    1.0000 </r>
       <r>   -0.2026    1.0000 </r>
       <r>    1.6385    1.0000 </r>
       <r>    1.6495    1.0000 </r>
       <r>    2.7410    1.0000 </r>
       <r>    4.0850    1.0000 </r>
       <r>    4.3666    1.0000 </r>
       <r>    5.5167    0.9997 </r>
       <r>    6.9399    0.0000 </r>
       <r>    6.9956    0.0000 </r>
       <r>   10.7237    0.0000 </r>
       <r>   10.8410    0.0000 </r>
       <r>   12.2915    0.0000 </r>
      </set>
      <set comment="kpoint 56">
       <r>   -9.3864    1.0000 </r>
       <r>   -7.1856    1.0000 </r>
       <r>   -0.8772    1.0000 </r>
       <r>   -0.2674    1.0000 </r>
       <r>   -0.2547    1.0000 </r>
       <r>    1.7338    1.0000 </r>
       <r>    1.7540    1.0000 </r>
       <r>    2.8844    1.0000 </r>
       <r>    4.2240    1.0000 </r>
       <r>    4.5131    1.0000 </r>
       <r>    5.6374    0.9546 </r>
       <r>    6.9638    0.0000 </r>
       <r>    7.0347    0.0000 </r>
       <r>   10.3816    0.0000 </r>
       <r>   10.4825    0.0000 </r>
       <r>   12.4503    0.0000 </r>
      </set>
      <set comment="kpoint 57">
       <r>   -9.4521    1.0000 </r>
       <r>   -7.1640    1.0000 </r>
       <r>   -0.9569    1.0000 </r>
       <r>   -0.3047    1.0000 </r>
       <r>   -0.2968    1.0000 </r>
       <r>    1.8057    1.0000 </r>
       <r>    1.8293    1.0000 </r>
       <r>    3.0132    1.0000 </r>
       <r>    4.3782    1.0000 </r>
       <r>    4.6055    1.0000 </r>
       <r>    5.7626    0.4686 </r>
       <r>    6.9759    0.0000 </r>
       <r>    7.0998    0.0000 </r>
       <r>   10.0412    0.0000 </r>
       <r>   10.1359    0.0000 </r>
       <r>   12.6492    0.0000 </r>
      </set>
      <set comment="kpoint 58">
       <r>   -9.4996    1.0000 </r>
       <r>   -7.1482    1.0000 </r>
       <r>   -1.0149    1.0000 </r>
       <r>   -0.3312    1.0000 </r>
       <r>   -0.3278    1.0000 </r>
       <r>    1.8608    1.0000 </r>
       <r>    1.8752    1.0000 </r>
       <r>    3.1092    1.0000 </r>
       <r>    4.5294    1.0000 </r>
       <r>    4.6562    1.0000 </r>
       <r>    5.8607    0.0712 </r>
       <r>    7.0363    0.0000 </r>
       <r>    7.1352    0.0000 </r>
       <r>    9.7595    0.0000 </r>
       <r>    9.8302    0.0000 </r>
       <r>   12.8361    0.0000 </r>
      </set>
      <set comment="kpoint 59">
       <r>   -9.5285    1.0000 </r>
       <r>   -7.1386    1.0000 </r>
       <r>   -1.0502    1.0000 </r>
       <r>   -0.3473    1.0000 </r>
       <r>   -0.3467    1.0000 </r>
       <r>    1.8954    1.0000 </r>
       <r>    1.8996    1.0000 </r>
       <r>    3.1663    1.0000 </r>
       <r>    4.6440    1.0000 </r>
       <r>    4.6801    1.0000 </r>
       <r>    5.9162    0.0122 </r>
       <r>    7.1136    0.0000 </r>
       <r>    7.1479    0.0000 </r>
       <r>    9.5747    0.0000 </r>
       <r>    9.6101    0.0000 </r>
       <r>   12.9706    0.0000 </r>
      </set>
      <set comment="kpoint 60">
       <r>   -9.5381    1.0000 </r>
       <r>   -7.1353    1.0000 </r>
       <r>   -1.0620    1.0000 </r>
       <r>   -0.3530    1.0000 </r>
       <r>   -0.3526    1.0000 </r>
       <r>    1.9072    1.0000 </r>
       <r>    1.9073    1.0000 </r>
       <r>    3.1851    1.0000 </r>
       <r>    4.6870    1.0000 </r>
       <r>    4.6873    1.0000 </r>
       <r>    5.9330    0.0064 </r>
       <r>    7.1499    0.0000 </r>
       <r>    7.1499    0.0000 </r>
       <r>    9.5103    0.0000 </r>
       <r>    9.5279    0.0000 </r>
       <r>   13.0193    0.0000 </r>
      </set>
      <set comment="kpoint 61">
       <r>   -9.5381    1.0000 </r>
       <r>   -7.1353    1.0000 </r>
       <r>   -1.0620    1.0000 </r>
       <r>   -0.3530    1.0000 </r>
       <r>   -0.3526    1.0000 </r>
       <r>    1.9072    1.0000 </r>
       <r>    1.9073    1.0000 </r>
       <r>    3.1851    1.0000 </r>
       <r>    4.6870    1.0000 </r>
       <r>    4.6873    1.0000 </r>
       <r>    5.9330    0.0064 </r>
       <r>    7.1499    0.0000 </r>
       <r>    7.1499    0.0000 </r>
       <r>    9.5103    0.0000 </r>
       <r>    9.5279    0.0000 </r>
       <r>   13.0193    0.0000 </r>
      </set>
      <set comment="kpoint 62">
       <r>   -9.5359    1.0000 </r>
       <r>   -7.1405    1.0000 </r>
       <r>   -1.0538    1.0000 </r>
       <r>   -0.3528    1.0000 </r>
       <r>   -0.3524    1.0000 </r>
       <r>    1.9071    1.0000 </r>
       <r>    1.9072    1.0000 </r>
       <r>    3.1847    1.0000 </r>
       <r>    4.6843    1.0000 </r>
       <r>    4.6846    1.0000 </r>
       <r>    5.9150    0.0128 </r>
       <r>    7.1544    0.0000 </r>
       <r>    7.1545    0.0000 </r>
       <r>    9.5178    0.0000 </r>
       <r>    9.5433    0.0000 </r>
       <r>   13.0169    0.0000 </r>
      </set>
      <set comment="kpoint 63">
       <r>   -9.5293    1.0000 </r>
       <r>   -7.1559    1.0000 </r>
       <r>   -1.0294    1.0000 </r>
       <r>   -0.3519    1.0000 </r>
       <r>   -0.3515    1.0000 </r>
       <r>    1.9066    1.0000 </r>
       <r>    1.9067    1.0000 </r>
       <r>    3.1838    1.0000 </r>
       <r>    4.6762    1.0000 </r>
       <r>    4.6765    1.0000 </r>
       <r>    5.8620    0.0688 </r>
       <r>    7.1679    0.0000 </r>
       <r>    7.1680    0.0000 </r>
       <r>    9.5341    0.0000 </r>
       <r>    9.5939    0.0000 </r>
       <r>   13.0095    0.0000 </r>
      </set>
      <set comment="kpoint 64">
       <r>   -9.5184    1.0000 </r>
       <r>   -7.1811    1.0000 </r>
       <r>   -0.9892    1.0000 </r>
       <r>   -0.3506    1.0000 </r>
       <r>   -0.3502    1.0000 </r>
       <r>    1.9059    1.0000 </r>
       <r>    1.9059    1.0000 </r>
       <r>    3.1821    1.0000 </r>
       <r>    4.6631    1.0000 </r>
       <r>    4.6634    1.0000 </r>
       <r>    5.7777    0.3848 </r>
       <r>    7.1899    0.0000 </r>
       <r>    7.1900    0.0000 </r>
       <r>    9.5586    0.0000 </r>
       <r>    9.6769    0.0000 </r>
       <r>   12.9974    0.0000 </r>
      </set>
      <set comment="kpoint 65">
       <r>   -9.5032    1.0000 </r>
       <r>   -7.2155    1.0000 </r>
       <r>   -0.9341    1.0000 </r>
       <r>   -0.3487    1.0000 </r>
       <r>   -0.3483    1.0000 </r>
       <r>    1.9048    1.0000 </r>
       <r>    1.9049    1.0000 </r>
       <r>    3.1795    1.0000 </r>
       <r>    4.6455    1.0000 </r>
       <r>    4.6458    1.0000 </r>
       <r>    5.6670    0.8986 </r>
       <r>    7.2197    0.0000 </r>
       <r>    7.2198    0.0000 </r>
       <r>    9.5921    0.0000 </r>
       <r>    9.7863    0.0000 </r>
       <r>   12.9806    0.0000 </r>
      </set>
      <set comment="kpoint 66">
       <r>   -9.4839    1.0000 </r>
       <r>   -7.2582    1.0000 </r>
       <r>   -0.8651    1.0000 </r>
       <r>   -0.3466    1.0000 </r>
       <r>   -0.3462    1.0000 </r>
       <r>    1.9033    1.0000 </r>
       <r>    1.9034    1.0000 </r>
       <r>    3.1760    1.0000 </r>
       <r>    4.6241    1.0000 </r>
       <r>    4.6244    1.0000 </r>
       <r>    5.5352    0.9991 </r>
       <r>    7.2565    0.0000 </r>
       <r>    7.2566    0.0000 </r>
       <r>    9.6343    0.0000 </r>
       <r>    9.9164    0.0000 </r>
       <r>   12.9593    0.0000 </r>
      </set>
      <set comment="kpoint 67">
       <r>   -9.4607    1.0000 </r>
       <r>   -7.3084    1.0000 </r>
       <r>   -0.7834    1.0000 </r>
       <r>   -0.3437    1.0000 </r>
       <r>   -0.3433    1.0000 </r>
       <r>    1.9020    1.0000 </r>
       <r>    1.9021    1.0000 </r>
       <r>    3.1711    1.0000 </r>
       <r>    4.5996    1.0000 </r>
       <r>    4.5999    1.0000 </r>
       <r>    5.3878    1.0000 </r>
       <r>    7.2992    0.0000 </r>
       <r>    7.2993    0.0000 </r>
       <r>    9.6848    0.0000 </r>
       <r>   10.0618    0.0000 </r>
       <r>   12.9337    0.0000 </r>
      </set>
      <set comment="kpoint 68">
       <r>   -9.4338    1.0000 </r>
       <r>   -7.3647    1.0000 </r>
       <r>   -0.6905    1.0000 </r>
       <r>   -0.3407    1.0000 </r>
       <r>   -0.3403    1.0000 </r>
       <r>    1.9004    1.0000 </r>
       <r>    1.9005    1.0000 </r>
       <r>    3.1648    1.0000 </r>
       <r>    4.5730    1.0000 </r>
       <r>    4.5733    1.0000 </r>
       <r>    5.2297    1.0000 </r>
       <r>    7.3466    0.0000 </r>
       <r>    7.3467    0.0000 </r>
       <r>    9.7431    0.0000 </r>
       <r>   10.2176    0.0000 </r>
       <r>   12.9043    0.0000 </r>
      </set>
      <set comment="kpoint 69">
       <r>   -9.4035    1.0000 </r>
[...]
        <r>  0.0000  0.0021  0.0000  0.0021  0.0002  0.0016  0.0000  0.0016  0.0002  0.0000  0.0000  0.0000  0.0000  0.0000  0.0000  0.0000 </r>
        <r>  0.0000  0.0021  0.0000  0.0021  0.0002  0.0016  0.0000  0.0016  0.0002  0.0000  0.0000  0.0000  0.0000  0.0000  0.0000  0.0000 </r>
       </set>
       <set comment="band 10">
        <r>  0.0000  0.0315  0.0000  0.0059  0.2920  0.0213  0.0000  0.2560  0.0565  0.0000  0.0001  0.0000  0.0000  0.0000  0.0003  0.0000 </r>
        <r>  0.0013  0.0137  0.0521  0.0137  0.0000  0.0000  0.0008  0.0000  0.0000  0.0000  0.0000  0.0000  0.0000  0.0000  0.0000  0.0000 </r>
        <r>  0.0013  0.0137  0.0521  0.0137  0.0000  0.0000  0.0008  0.0000  0.0000  0.0000  0.0000  0.0000  0.0000  0.0000  0.0000  0.0000 </r>
       </set>
       <set comment="band 11">
        <r>  0.0000  0.0059  0.0000  0.0315  0.0565  0.2561  0.0000  0.0213  0.2920  0.0000  0.0003  0.0000  0.0000  0.0000  0.0001  0.0000 </r>
        <r>  0.0013  0.0137  0.0521  0.0137  0.0000  0.0000  0.0008  0.0000  0.0000  0.0000  0.0000  0.0000  0.0000  0.0000  0.0000  0.0000 </r>
        <r>  0.0013  0.0137  0.0521  0.0137  0.0000  0.0000  0.0008  0.0000  0.0000  0.0000  0.0000  0.0000  0.0000  0.0000  0.0000  0.0000 </r>
       </set>
       <set comment="band 12">
        <r>  0.0000  0.0000  0.0000  0.0019  0.0501  0.0586  0.0000  0.1475  0.0304  0.0000  0.0004  0.0035  0.0000  0.0025  0.0008  0.0000 </r>
        <r>  0.0034  0.0510  0.1344  0.0510  0.0009  0.0012  0.0012  0.0012  0.0009  0.0000  0.0000  0.0000  0.0000  0.0000  0.0000  0.0000 </r>
        <r>  0.0034  0.0510  0.1344  0.0510  0.0009  0.0012  0.0012  0.0012  0.0009  0.0000  0.0000  0.0000  0.0000  0.0000  0.0000  0.0000 </r>
       </set>
       <set comment="band 13">
        <r>  0.0000  0.0019  0.0000  0.0000  0.0304  0.1474  0.0000  0.0586  0.0501  0.0000  0.0008  0.0025  0.0000  0.0035  0.0004  0.0000 </r>
        <r>  0.0034  0.0510  0.1344  0.0510  0.0009  0.0012  0.0012  0.0012  0.0009  0.0000  0.0000  0.0000  0.0000  0.0000  0.0000  0.0000 </r>
        <r>  0.0034  0.0510  0.1344  0.0510  0.0009  0.0012  0.0012  0.0012  0.0009  0.0000  0.0000  0.0000  0.0000  0.0000  0.0000  0.0000 </r>
       </set>
       <set comment="band 14">
        <r>  0.3766  0.0000  0.0015  0.0000  0.0000  0.0000  0.0016  0.0000  0.0000  0.0002  0.0000  0.0000  0.0006  0.0000  0.0000  0.0087 </r>
        <r>  0.0000  0.0895  0.0000  0.0896  0.0110  0.0088  0.0000  0.0082  0.0109  0.0000  0.0000  0.0000  0.0000  0.0000  0.0000  0.0000 </r>
        <r>  0.0000  0.0894  0.0000  0.0895  0.0109  0.0089  0.0000  0.0083  0.0109  0.0000  0.0000  0.0000  0.0000  0.0000  0.0000  0.0000 </r>
       </set>
       <set comment="band 15">
        <r>  0.0000  0.0665  0.0000  0.0741  0.0002  0.0067  0.0000  0.0118  0.0013  0.0000  0.0044  0.0040  0.0000  0.0082  0.0020  0.0000 </r>
        <r>  0.0435  0.0015  0.0075  0.0015  0.0002  0.0270  0.0182  0.0270  0.0002  0.0000  0.0000  0.0000  0.0000  0.0000  0.0000  0.0000 </r>
        <r>  0.0443  0.0015  0.0076  0.0015  0.0002  0.0265  0.0186  0.0265  0.0002  0.0000  0.0000  0.0000  0.0000  0.0000  0.0000  0.0000 </r>
       </set>
       <set comment="band 16">
        <r>  0.0021  0.0428  0.0000  0.0340  0.0009  0.0068  0.0008  0.0048  0.0002  0.0054  0.0022  0.0056  0.0158  0.0026  0.0009  0.0001 </r>
        <r>  0.0242  0.0168  0.0042  0.0307  0.0020  0.0411  0.0121  0.0058  0.0033  0.0000  0.0000  0.0000  0.0000  0.0000  0.0000  0.0000 </r>
        <r>  0.0236  0.0139  0.0041  0.0319  0.0025  0.0387  0.0129  0.0119  0.0040  0.0000  0.0000  0.0000  0.0000  0.0000  0.0000  0.0000 </r>
       </set>
      </set>
      <set comment="kpoint 179">
       <set comment="band 1">
        <r>  0.0000  0.0217  0.0000  0.0021  0.0230  0.0026  0.0000  0.0283  0.0022  0.0000  0.0001  0.0000  0.0000  0.0000  0.0009  0.0000 </r>
        <r>  0.3513  0.0000  0.0018  0.0000  0.0000  0.0000  0.0000  0.0000  0.0000  0.0000  0.0000  0.0000  0.0000  0.0000  0.0000  0.0000 </r>
        <r>  0.3516  0.0000  0.0018  0.0000  0.0000  0.0000  0.0000  0.0000  0.0000  0.0000  0.0000  0.0000  0.0000  0.0000  0.0000  0.0000 </r>
       </set>
       <set comment="band 2">
        <r>  0.0000  0.0021  0.0000  0.0217  0.0022  0.0283  0.0000  0.0026  0.0230  0.0000  0.0009  0.0000  0.0000  0.0000  0.0001  0.0000 </r>
        <r>  0.3516  0.0000  0.0018  0.0000  0.0000  0.0000  0.0000  0.0000  0.0000  0.0000  0.0000  0.0000  0.0000  0.0000  0.0000  0.0000 </r>
        <r>  0.3513  0.0000  0.0018  0.0000  0.0000  0.0000  0.0000  0.0000  0.0000  0.0000  0.0000  0.0000  0.0000  0.0000  0.0000  0.0000 </r>
       </set>
       <set comment="band 3">
        <r>  0.0000  0.0567  0.0000  0.0005  0.0533  0.0040  0.0000  0.2341  0.0001  0.0000  0.0000  0.0000  0.0000  0.0000  0.0001  0.0000 </r>
        <r>  0.0001  0.0510  0.0297  0.0510  0.0002  0.0004  0.0005  0.0004  0.0002  0.0000  0.0000  0.0000  0.0000  0.0000  0.0000  0.0000 </r>
        <r>  0.0001  0.0510  0.0297  0.0510  0.0002  0.0004  0.0005  0.0004  0.0002  0.0000  0.0000  0.0000  0.0000  0.0000  0.0000  0.0000 </r>
       </set>
       <set comment="band 4">
        <r>  0.0006  0.0005  0.0000  0.0566  0.0001  0.2339  0.0000  0.0040  0.0531  0.0000  0.0001  0.0000  0.0000  0.0000  0.0000  0.0000 </r>
        <r>  0.0001  0.0460  0.0296  0.0561  0.0002  0.0003  0.0005  0.0005  0.0003  0.0000  0.0000  0.0000  0.0000  0.0000  0.0000  0.0000 </r>
        <r>  0.0001  0.0460  0.0296  0.0561  0.0002  0.0003  0.0005  0.0005  0.0003  0.0000  0.0000  0.0000  0.0000  0.0000  0.0000  0.0000 </r>
       </set>
       <set comment="band 5">
        <r>  0.3529  0.0000  0.0001  0.0001  0.0000  0.0004  0.0039  0.0000  0.0001  0.0000  0.0000  0.0000  0.0000  0.0000  0.0000  0.0018 </r>
        <r>  0.0000  0.0783  0.0001  0.0681  0.0011  0.0021  0.0000  0.0020  0.0011  0.0000  0.0000  0.0000  0.0000  0.0000  0.0000  0.0000 </r>
        <r>  0.0000  0.0783  0.0001  0.0681  0.0011  0.0021  0.0000  0.0020  0.0011  0.0000  0.0000  0.0000  0.0000  0.0000  0.0000  0.0000 </r>
       </set>
       <set comment="band 6">
        <r>  0.0000  0.0000  0.0000  0.0001  0.0010  0.2051  0.0000  0.0003  0.4270  0.0000  0.0001  0.0000  0.0000  0.0010  0.0000  0.0000 </r>
        <r>  0.0218  0.0094  0.0694  0.0095  0.0013  0.0007  0.0000  0.0007  0.0013  0.0000  0.0000  0.0000  0.0000  0.0000  0.0000  0.0000 </r>
        <r>  0.0218  0.0094  0.0694  0.0095  0.0013  0.0007  0.0000  0.0007  0.0013  0.0000  0.0000  0.0000  0.0000  0.0000  0.0000  0.0000 </r>
       </set>
       <set comment="band 7">
        <r>  0.0000  0.0001  0.0000  0.0000  0.4267  0.0003  0.0000  0.2053  0.0010  0.0000  0.0000  0.0010  0.0000  0.0000  0.0001  0.0000 </r>
        <r>  0.0218  0.0095  0.0694  0.0094  0.0013  0.0007  0.0000  0.0007  0.0013  0.0000  0.0000  0.0000  0.0000  0.0000  0.0000  0.0000 </r>
        <r>  0.0218  0.0095  0.0694  0.0094  0.0013  0.0007  0.0000  0.0007  0.0013  0.0000  0.0000  0.0000  0.0000  0.0000  0.0000  0.0000 </r>
       </set>
       <set comment="band 8">
        <r>  0.0007  0.0000  0.1104  0.0000  0.0000  0.0000  0.0027  0.0000  0.0000  0.0015  0.0000  0.0000  0.0010  0.0000  0.0000  0.0000 </r>
        <r>  0.0000  0.1044  0.0000  0.1045  0.0008  0.0002  0.0000  0.0002  0.0008  0.0000  0.0000  0.0000  0.0000  0.0000  0.0000  0.0000 </r>
        <r>  0.0000  0.1044  0.0000  0.1045  0.0008  0.0002  0.0000  0.0002  0.0008  0.0000  0.0000  0.0000  0.0000  0.0000  0.0000  0.0000 </r>
       </set>
       <set comment="band 9">
        <r>  0.0044  0.0000  0.0004  0.0000  0.0000  0.0000  0.8940  0.0000  0.0000  0.0000  0.0000  0.0000  0.0000  0.0000  0.0000  0.0005 </r>
        <r>  0.0000  0.0008  0.0000  0.0008  0.0002  0.0016  0.0000  0.0016  0.0002  0.0000  0.0000  0.0000  0.0000  0.0000  0.0000  0.0000 </r>
        <r>  0.0000  0.0008  0.0000  0.0008  0.0002  0.0016  0.0000  0.0016  0.0002  0.0000  0.0000  0.0000  0.0000  0.0000  0.0000  0.0000 </r>
       </set>
       <set comment="band 10">
        <r>  0.0000  0.0350  0.0000  0.0019  0.3319  0.0072  0.0000  0.2716  0.0180  0.0000  0.0000  0.0000  0.0000  0.0000  0.0003  0.0000 </r>
        <r>  0.0012  0.0136  0.0515  0.0136  0.0000  0.0000  0.0008  0.0000  0.0000  0.0000  0.0000  0.0000  0.0000  0.0000  0.0000  0.0000 </r>
        <r>  0.0012  0.0136  0.0515  0.0136  0.0000  0.0000  0.0008  0.0000  0.0000  0.0000  0.0000  0.0000  0.0000  0.0000  0.0000  0.0000 </r>
       </set>
       <set comment="band 11">
        <r>  0.0000  0.0019  0.0000  0.0350  0.0180  0.2717  0.0000  0.0072  0.3318  0.0000  0.0003  0.0000  0.0000  0.0000  0.0000  0.0000 </r>
        <r>  0.0012  0.0136  0.0515  0.0136  0.0000  0.0000  0.0008  0.0000  0.0000  0.0000  0.0000  0.0000  0.0000  0.0000  0.0000  0.0000 </r>
        <r>  0.0012  0.0136  0.0515  0.0136  0.0000  0.0000  0.0008  0.0000  0.0000  0.0000  0.0000  0.0000  0.0000  0.0000  0.0000  0.0000 </r>
       </set>
       <set comment="band 12">
        <r>  0.0000  0.0003  0.0000  0.0008  0.0625  0.0383  0.0000  0.1661  0.0184  0.0000  0.0002  0.0046  0.0000  0.0015  0.0009  0.0000 </r>
        <r>  0.0028  0.0516  0.1367  0.0516  0.0009  0.0011  0.0012  0.0011  0.0009  0.0000  0.0000  0.0000  0.0000  0.0000  0.0000  0.0000 </r>
        <r>  0.0028  0.0516  0.1367  0.0516  0.0009  0.0011  0.0012  0.0011  0.0009  0.0000  0.0000  0.0000  0.0000  0.0000  0.0000  0.0000 </r>
       </set>
       <set comment="band 13">
        <r>  0.0000  0.0008  0.0000  0.0003  0.0184  0.1660  0.0000  0.0383  0.0625  0.0000  0.0009  0.0015  0.0000  0.0046  0.0002  0.0000 </r>
        <r>  0.0027  0.0516  0.1367  0.0516  0.0009  0.0011  0.0012  0.0011  0.0009  0.0000  0.0000  0.0000  0.0000  0.0000  0.0000  0.0000 </r>
        <r>  0.0027  0.0516  0.1367  0.0516  0.0009  0.0011  0.0012  0.0011  0.0009  0.0000  0.0000  0.0000  0.0000  0.0000  0.0000  0.0000 </r>
       </set>
       <set comment="band 14">
        <r>  0.3817  0.0000  0.0004  0.0000  0.0000  0.0000  0.0012  0.0000  0.0000  0.0000  0.0000  0.0000  0.0001  0.0000  0.0000  0.0097 </r>
        <r>  0.0000  0.0918  0.0000  0.0921  0.0116  0.0078  0.0000  0.0073  0.0116  0.0000  0.0000  0.0000  0.0000  0.0000  0.0000  0.0000 </r>
        <r>  0.0000  0.0914  0.0000  0.0917  0.0115  0.0078  0.0000  0.0073  0.0116  0.0000  0.0000  0.0000  0.0000  0.0000  0.0000  0.0000 </r>
       </set>
       <set comment="band 15">
        <r>  0.0000  0.0609  0.0000  0.0816  0.0000  0.0091  0.0000  0.0095  0.0005  0.0000  0.0041  0.0042  0.0000  0.0078  0.0022  0.0000 </r>
        <r>  0.0445  0.0005  0.0060  0.0005  0.0001  0.0272  0.0181  0.0272  0.0001  0.0000  0.0000  0.0000  0.0000  0.0000  0.0000  0.0000 </r>
        <r>  0.0453  0.0005  0.0061  0.0005  0.0001  0.0267  0.0184  0.0267  0.0001  0.0000  0.0000  0.0000  0.0000  0.0000  0.0000  0.0000 </r>
       </set>
       <set comment="band 16">
        <r>  0.0003  0.0513  0.0000  0.0413  0.0009  0.0058  0.0014  0.0085  0.0001  0.0034  0.0025  0.0084  0.0114  0.0031  0.0020  0.0002 </r>
        <r>  0.0295  0.0120  0.0048  0.0217  0.0013  0.0399  0.0149  0.0071  0.0031  0.0000  0.0000  0.0000  0.0000  0.0000  0.0000  0.0000 </r>
        <r>  0.0283  0.0115  0.0049  0.0212  0.0022  0.0356  0.0165  0.0158  0.0036  0.0000  0.0000  0.0000  0.0000  0.0000  0.0000  0.0000 </r>
       </set>
      </set>
      <set comment="kpoint 180">
       <set comment="band 1">
        <r>  0.0000  0.0238  0.0000  0.0000  0.0251  0.0000  0.0000  0.0309  0.0000  0.0000  0.0000  0.0000  0.0000  0.0000  0.0010  0.0000 </r>
        <r>  0.3514  0.0000  0.0018  0.0000  0.0000  0.0000  0.0000  0.0000  0.0000  0.0000  0.0000  0.0000  0.0000  0.0000  0.0000  0.0000 </r>
        <r>  0.3514  0.0000  0.0018  0.0000  0.0000  0.0000  0.0000  0.0000  0.0000  0.0000  0.0000  0.0000  0.0000  0.0000  0.0000  0.0000 </r>
       </set>
       <set comment="band 2">
        <r>  0.0000  0.0000  0.0000  0.0238  0.0000  0.0309  0.0000  0.0000  0.0251  0.0000  0.0010  0.0000  0.0000  0.0000  0.0000  0.0000 </r>
        <r>  0.3514  0.0000  0.0018  0.0000  0.0000  0.0000  0.0000  0.0000  0.0000  0.0000  0.0000  0.0000  0.0000  0.0000  0.0000  0.0000 </r>
        <r>  0.3514  0.0000  0.0018  0.0000  0.0000  0.0000  0.0000  0.0000  0.0000  0.0000  0.0000  0.0000  0.0000  0.0000  0.0000  0.0000 </r>
       </set>
       <set comment="band 3">
        <r>  0.0000  0.0573  0.0000  0.0000  0.0536  0.0000  0.0000  0.2371  0.0000  0.0000  0.0000  0.0000  0.0000  0.0000  0.0001  0.0000 </r>
        <r>  0.0001  0.0510  0.0298  0.0510  0.0002  0.0004  0.0005  0.0004  0.0002  0.0000  0.0000  0.0000  0.0000  0.0000  0.0000  0.0000 </r>
        <r>  0.0001  0.0510  0.0298  0.0510  0.0002  0.0004  0.0005  0.0004  0.0002  0.0000  0.0000  0.0000  0.0000  0.0000  0.0000  0.0000 </r>
       </set>
       <set comment="band 4">
        <r>  0.0001  0.0000  0.0000  0.0573  0.0000  0.2372  0.0000  0.0000  0.0534  0.0000  0.0001  0.0000  0.0000  0.0000  0.0000  0.0000 </r>
        <r>  0.0001  0.0486  0.0298  0.0534  0.0002  0.0004  0.0005  0.0004  0.0002  0.0000  0.0000  0.0000  0.0000  0.0000  0.0000  0.0000 </r>
        <r>  0.0001  0.0486  0.0298  0.0534  0.0002  0.0004  0.0005  0.0004  0.0002  0.0000  0.0000  0.0000  0.0000  0.0000  0.0000  0.0000 </r>
       </set>
       <set comment="band 5">
        <r>  0.3541  0.0000  0.0000  0.0000  0.0000  0.0001  0.0039  0.0000  0.0000  0.0000  0.0000  0.0000  0.0000  0.0000  0.0000  0.0018 </r>
        <r>  0.0000  0.0756  0.0000  0.0708  0.0011  0.0021  0.0000  0.0020  0.0011  0.0000  0.0000  0.0000  0.0000  0.0000  0.0000  0.0000 </r>
        <r>  0.0000  0.0756  0.0000  0.0708  0.0011  0.0021  0.0000  0.0020  0.0011  0.0000  0.0000  0.0000  0.0000  0.0000  0.0000  0.0000 </r>
       </set>
       <set comment="band 6">
        <r>  0.0000  0.0000  0.0000  0.0001  0.0000  0.2064  0.0000  0.0000  0.4274  0.0000  0.0001  0.0000  0.0000  0.0010  0.0000  0.0000 </r>
        <r>  0.0219  0.0095  0.0693  0.0095  0.0013  0.0007  0.0000  0.0007  0.0013  0.0000  0.0000  0.0000  0.0000  0.0000  0.0000  0.0000 </r>
        <r>  0.0219  0.0095  0.0693  0.0095  0.0013  0.0007  0.0000  0.0007  0.0013  0.0000  0.0000  0.0000  0.0000  0.0000  0.0000  0.0000 </r>
       </set>
       <set comment="band 7">
        <r>  0.0000  0.0001  0.0000  0.0000  0.4272  0.0000  0.0000  0.2067  0.0000  0.0000  0.0000  0.0010  0.0000  0.0000  0.0001  0.0000 </r>
        <r>  0.0219  0.0096  0.0692  0.0094  0.0013  0.0007  0.0000  0.0007  0.0013  0.0000  0.0000  0.0000  0.0000  0.0000  0.0000  0.0000 </r>
        <r>  0.0219  0.0096  0.0692  0.0094  0.0013  0.0007  0.0000  0.0007  0.0013  0.0000  0.0000  0.0000  0.0000  0.0000  0.0000  0.0000 </r>
       </set>
       <set comment="band 8">
        <r>  0.0000  0.0000  0.1107  0.0000  0.0000  0.0000  0.0000  0.0000  0.0000  0.0015  0.0000  0.0000  0.0010  0.0000  0.0000  0.0000 </r>
        <r>  0.0000  0.1047  0.0000  0.1048  0.0008  0.0002  0.0000  0.0002  0.0008  0.0000  0.0000  0.0000  0.0000  0.0000  0.0000  0.0000 </r>
        <r>  0.0000  0.1047  0.0000  0.1048  0.0008  0.0002  0.0000  0.0002  0.0008  0.0000  0.0000  0.0000  0.0000  0.0000  0.0000  0.0000 </r>
       </set>
       <set comment="band 9">
        <r>  0.0045  0.0000  0.0000  0.0000  0.0000  0.0000  0.8969  0.0000  0.0000  0.0000  0.0000  0.0000  0.0000  0.0000  0.0000  0.0005 </r>
        <r>  0.0000  0.0004  0.0000  0.0004  0.0002  0.0016  0.0000  0.0016  0.0002  0.0000  0.0000  0.0000  0.0000  0.0000  0.0000  0.0000 </r>
        <r>  0.0000  0.0004  0.0000  0.0004  0.0002  0.0016  0.0000  0.0016  0.0002  0.0000  0.0000  0.0000  0.0000  0.0000  0.0000  0.0000 </r>
       </set>
       <set comment="band 10">
        <r>  0.0000  0.0367  0.0000  0.0000  0.3503  0.0000  0.0000  0.2794  0.0000  0.0000  0.0000  0.0000  0.0000  0.0000  0.0003  0.0000 </r>
        <r>  0.0012  0.0136  0.0513  0.0136  0.0000  0.0000  0.0008  0.0000  0.0000  0.0000  0.0000  0.0000  0.0000  0.0000  0.0000  0.0000 </r>
        <r>  0.0012  0.0136  0.0513  0.0136  0.0000  0.0000  0.0008  0.0000  0.0000  0.0000  0.0000  0.0000  0.0000  0.0000  0.0000  0.0000 </r>
       </set>
       <set comment="band 11">
        <r>  0.0000  0.0000  0.0000  0.0367  0.0000  0.2794  0.0000  0.0000  0.3502  0.0000  0.0003  0.0000  0.0000  0.0000  0.0000  0.0000 </r>
        <r>  0.0012  0.0136  0.0513  0.0136  0.0000  0.0000  0.0008  0.0000  0.0000  0.0000  0.0000  0.0000  0.0000  0.0000  0.0000  0.0000 </r>
        <r>  0.0012  0.0136  0.0513  0.0136  0.0000  0.0000  0.0008  0.0000  0.0000  0.0000  0.0000  0.0000  0.0000  0.0000  0.0000  0.0000 </r>
       </set>
       <set comment="band 12">
        <r>  0.0000  0.0007  0.0000  0.0000  0.0811  0.0000  0.0000  0.2038  0.0000  0.0000  0.0000  0.0061  0.0000  0.0000  0.0011  0.0000 </r>
        <r>  0.0025  0.0518  0.1374  0.0518  0.0009  0.0010  0.0012  0.0010  0.0009  0.0000  0.0000  0.0000  0.0000  0.0000  0.0000  0.0000 </r>
        <r>  0.0025  0.0518  0.1374  0.0518  0.0009  0.0010  0.0012  0.0010  0.0009  0.0000  0.0000  0.0000  0.0000  0.0000  0.0000  0.0000 </r>
       </set>
       <set comment="band 13">
        <r>  0.0000  0.0000  0.0000  0.0007  0.0000  0.2038  0.0000  0.0000  0.0811  0.0000  0.0011  0.0000  0.0000  0.0061  0.0000  0.0000 </r>
        <r>  0.0025  0.0518  0.1374  0.0518  0.0009  0.0010  0.0012  0.0010  0.0009  0.0000  0.0000  0.0000  0.0000  0.0000  0.0000  0.0000 </r>
        <r>  0.0025  0.0518  0.1374  0.0518  0.0009  0.0010  0.0012  0.0010  0.0009  0.0000  0.0000  0.0000  0.0000  0.0000  0.0000  0.0000 </r>
       </set>
       <set comment="band 14">
        <r>  0.3840  0.0000  0.0000  0.0000  0.0000  0.0000  0.0009  0.0000  0.0000  0.0000  0.0000  0.0000  0.0000  0.0000  0.0000  0.0101 </r>
        <r>  0.0000  0.0928  0.0000  0.0929  0.0119  0.0071  0.0000  0.0070  0.0120  0.0000  0.0000  0.0000  0.0000  0.0000  0.0000  0.0000 </r>
        <r>  0.0000  0.0922  0.0000  0.0922  0.0119  0.0072  0.0000  0.0072  0.0119  0.0000  0.0000  0.0000  0.0000  0.0000  0.0000  0.0000 </r>
       </set>
       <set comment="band 15">
        <r>  0.0000  0.0545  0.0000  0.0886  0.0001  0.0115  0.0000  0.0071  0.0001  0.0000  0.0039  0.0045  0.0000  0.0074  0.0023  0.0000 </r>
        <r>  0.0450  0.0002  0.0055  0.0002  0.0001  0.0272  0.0181  0.0271  0.0001  0.0000  0.0000  0.0000  0.0000  0.0000  0.0000  0.0000 </r>
        <r>  0.0454  0.0002  0.0056  0.0002  0.0001  0.0269  0.0183  0.0269  0.0001  0.0000  0.0000  0.0000  0.0000  0.0000  0.0000  0.0000 </r>
       </set>
       <set comment="band 16">
        <r>  0.0000  0.0867  0.0000  0.0535  0.0002  0.0066  0.0000  0.0115  0.0001  0.0001  0.0024  0.0078  0.0005  0.0047  0.0036  0.0000 </r>
        <r>  0.0447  0.0003  0.0056  0.0018  0.0000  0.0318  0.0190  0.0217  0.0004  0.0000  0.0000  0.0000  0.0000  0.0000  0.0000  0.0000 </r>
        <r>  0.0443  0.0007  0.0056  0.0013  0.0002  0.0296  0.0189  0.0245  0.0003  0.0000  0.0000  0.0000  0.0000  0.0000  0.0000  0.0000 </r>
       </set>
      </set>
     </set>
    </set>
   </array>
  </projected>
 </calculation>
 <structure name="finalpos" >
  <crystal>
   <varray name="basis" >
    <v>       1.88581811      -3.26617343      -0.00005704 </v>
    <v>       1.88581811       3.26617343       0.00005704 </v>
    <v>       0.00000000       0.00005384       5.26207358 </v>
   </varray>
   <i name="volume">     64.82252683 </i>
   <varray name="rec_basis" >
    <v>       0.26513692      -0.15308434       0.00000157 </v>
    <v>       0.26513692       0.15308434      -0.00000157 </v>
    <v>       0.00000000      -0.00000332       0.19003915 </v>
   </varray>
  </crystal>
  <varray name="positions" >
   <v>       0.00000000       0.00000000       0.00000000 </v>
   <v>       0.33333228       0.66666772       0.24697395 </v>
   <v>       0.66666772       0.33333228       0.75302605 </v>
  </varray>
 </structure>
</modeling>
