unknown system                          
           1
     1.885818   -3.266173   -0.000057
     1.885818    3.266173    0.000057
     0.000000    0.000054    5.262074
   Pt   Se
   1   2
Direct configuration=     1
   0.00000000  0.00000000  0.00000000
   0.33333228  0.66666772  0.24697395
   0.66666772  0.33333228  0.75302605
