  96  96   0   0
  0.2255781E+02  0.5904735E-09  0.1262763E-08  0.2904330E-08  0.2000000E-16
  1.000000000000000E-004
  CAR 
 MgH2                                    
      6.51135901    -11.76473125  301     -1.65193156      1.00000000
    -11.765  0.0000E+00  0.0000E+00
    -11.704  0.0000E+00  0.0000E+00
    -11.643  0.0000E+00  0.0000E+00
    -11.582  0.0000E+00  0.0000E+00
    -11.521  0.0000E+00  0.0000E+00
    -11.460  0.0000E+00  0.0000E+00
    -11.399  0.0000E+00  0.0000E+00
    -11.338  0.0000E+00  0.0000E+00
    -11.277  0.0000E+00  0.0000E+00
    -11.216  0.0000E+00  0.0000E+00
    -11.156  0.0000E+00  0.0000E+00
    -11.095  0.0000E+00  0.0000E+00
    -11.034  0.0000E+00  0.0000E+00
    -10.973  0.0000E+00  0.0000E+00
    -10.912  0.1177E-14  0.7170E-16
    -10.851  0.3843E-13  0.2413E-14
    -10.790  0.1015E-11  0.6424E-13
    -10.729  0.2238E-10  0.1427E-11
    -10.668  0.4110E-09  0.2646E-10
    -10.607  0.6288E-08  0.4096E-09
    -10.546  0.8019E-07  0.5295E-08
    -10.485  0.8524E-06  0.5722E-07
    -10.424  0.7556E-05  0.5176E-06
    -10.364  0.5588E-04  0.3922E-05
    -10.303  0.3450E-03  0.2494E-04
    -10.242  0.1779E-02  0.1333E-03
    -10.181  0.7675E-02  0.6009E-03
    -10.120  0.2773E-01  0.2290E-02
    -10.059  0.8416E-01  0.7417E-02
     -9.998  0.2153E+00  0.2054E-01
     -9.937  0.4673E+00  0.4900E-01
     -9.876  0.8682E+00  0.1019E+00
     -9.815  0.1399E+01  0.1871E+00
     -9.754  0.1990E+01  0.3084E+00
     -9.693  0.2546E+01  0.4635E+00
     -9.633  0.2981E+01  0.6451E+00
     -9.572  0.3232E+01  0.8420E+00
     -9.511  0.3283E+01  0.1042E+01
     -9.450  0.3194E+01  0.1237E+01
     -9.389  0.3104E+01  0.1426E+01
     -9.328  0.3164E+01  0.1618E+01
     -9.267  0.3461E+01  0.1829E+01
     -9.206  0.3987E+01  0.2072E+01
     -9.145  0.4681E+01  0.2357E+01
     -9.084  0.5459E+01  0.2690E+01
     -9.023  0.6224E+01  0.3069E+01
     -8.962  0.6870E+01  0.3488E+01
     -8.901  0.7328E+01  0.3934E+01
     -8.841  0.7595E+01  0.4397E+01
     -8.780  0.7734E+01  0.4868E+01
     -8.719  0.7845E+01  0.5346E+01
     -8.658  0.8025E+01  0.5835E+01
     -8.597  0.8348E+01  0.6343E+01
     -8.536  0.8857E+01  0.6883E+01
     -8.475  0.9577E+01  0.7466E+01
     -8.414  0.1049E+02  0.8105E+01
     -8.353  0.1149E+02  0.8805E+01
     -8.292  0.1239E+02  0.9560E+01
     -8.231  0.1299E+02  0.1035E+02
     -8.170  0.1319E+02  0.1115E+02
     -8.110  0.1297E+02  0.1194E+02
     -8.049  0.1237E+02  0.1270E+02
     -7.988  0.1147E+02  0.1340E+02
     -7.927  0.1045E+02  0.1403E+02
     -7.866  0.9624E+01  0.1462E+02
     -7.805  0.9366E+01  0.1519E+02
     -7.744  0.9983E+01  0.1580E+02
     -7.683  0.1152E+02  0.1650E+02
     -7.622  0.1366E+02  0.1733E+02
     -7.561  0.1583E+02  0.1830E+02
     -7.500  0.1740E+02  0.1936E+02
     -7.439  0.1791E+02  0.2045E+02
     -7.378  0.1722E+02  0.2150E+02
     -7.318  0.1558E+02  0.2245E+02
     -7.257  0.1356E+02  0.2327E+02
     -7.196  0.1186E+02  0.2400E+02
     -7.135  0.1097E+02  0.2466E+02
     -7.074  0.1103E+02  0.2534E+02
     -7.013  0.1187E+02  0.2606E+02
     -6.952  0.1320E+02  0.2686E+02
     -6.891  0.1474E+02  0.2776E+02
     -6.830  0.1620E+02  0.2875E+02
     -6.769  0.1735E+02  0.2981E+02
     -6.708  0.1799E+02  0.3090E+02
     -6.647  0.1799E+02  0.3200E+02
     -6.587  0.1741E+02  0.3306E+02
     -6.526  0.1646E+02  0.3406E+02
     -6.465  0.1553E+02  0.3501E+02
     -6.404  0.1507E+02  0.3592E+02
     -6.343  0.1541E+02  0.3686E+02
     -6.282  0.1657E+02  0.3787E+02
     -6.221  0.1828E+02  0.3899E+02
     -6.160  0.2011E+02  0.4021E+02
     -6.099  0.2172E+02  0.4153E+02
     -6.038  0.2305E+02  0.4294E+02
     -5.977  0.2423E+02  0.4441E+02
     -5.916  0.2539E+02  0.4596E+02
     -5.855  0.2638E+02  0.4757E+02
     -5.795  0.2681E+02  0.4920E+02
     -5.734  0.2627E+02  0.5080E+02
     -5.673  0.2478E+02  0.5231E+02
     -5.612  0.2287E+02  0.5370E+02
     -5.551  0.2124E+02  0.5500E+02
     -5.490  0.2027E+02  0.5623E+02
     -5.429  0.1986E+02  0.5744E+02
     -5.368  0.1965E+02  0.5864E+02
     -5.307  0.1947E+02  0.5983E+02
     -5.246  0.1951E+02  0.6101E+02
     -5.185  0.2001E+02  0.6223E+02
     -5.124  0.2098E+02  0.6351E+02
     -5.063  0.2210E+02  0.6486E+02
     -5.003  0.2305E+02  0.6626E+02
     -4.942  0.2377E+02  0.6771E+02
     -4.881  0.2443E+02  0.6920E+02
     -4.820  0.2508E+02  0.7073E+02
     -4.759  0.2545E+02  0.7228E+02
     -4.698  0.2531E+02  0.7382E+02
     -4.637  0.2484E+02  0.7533E+02
     -4.576  0.2478E+02  0.7684E+02
     -4.515  0.2601E+02  0.7843E+02
     -4.454  0.2882E+02  0.8018E+02
     -4.393  0.3270E+02  0.8217E+02
     -4.332  0.3649E+02  0.8440E+02
     -4.272  0.3907E+02  0.8678E+02
     -4.211  0.3980E+02  0.8920E+02
     -4.150  0.3886E+02  0.9157E+02
     -4.089  0.3701E+02  0.9382E+02
     -4.028  0.3511E+02  0.9596E+02
     -3.967  0.3374E+02  0.9802E+02
     -3.906  0.3298E+02  0.1000E+03
     -3.845  0.3254E+02  0.1020E+03
     -3.784  0.3197E+02  0.1040E+03
     -3.723  0.3089E+02  0.1058E+03
     -3.662  0.2924E+02  0.1076E+03
     -3.601  0.2724E+02  0.1093E+03
     -3.540  0.2520E+02  0.1108E+03
     -3.480  0.2335E+02  0.1122E+03
     -3.419  0.2177E+02  0.1136E+03
     -3.358  0.2048E+02  0.1148E+03
     -3.297  0.1950E+02  0.1160E+03
     -3.236  0.1883E+02  0.1171E+03
     -3.175  0.1839E+02  0.1183E+03
     -3.114  0.1801E+02  0.1194E+03
     -3.053  0.1741E+02  0.1204E+03
     -2.992  0.1639E+02  0.1214E+03
     -2.931  0.1503E+02  0.1223E+03
     -2.870  0.1373E+02  0.1232E+03
     -2.809  0.1299E+02  0.1240E+03
     -2.749  0.1291E+02  0.1248E+03
     -2.688  0.1297E+02  0.1255E+03
     -2.627  0.1234E+02  0.1263E+03
     -2.566  0.1055E+02  0.1269E+03
     -2.505  0.7852E+01  0.1274E+03
     -2.444  0.5001E+01  0.1277E+03
     -2.383  0.2703E+01  0.1279E+03
     -2.322  0.1234E+01  0.1280E+03
     -2.261  0.4743E+00  0.1280E+03
     -2.200  0.1533E+00  0.1280E+03
     -2.139  0.4161E-01  0.1280E+03
     -2.078  0.9474E-02  0.1280E+03
     -2.017  0.1808E-02  0.1280E+03
     -1.957  0.2888E-03  0.1280E+03
     -1.896  0.3861E-04  0.1280E+03
     -1.835  0.4318E-05  0.1280E+03
     -1.774  0.4036E-06  0.1280E+03
     -1.713  0.3152E-07  0.1280E+03
     -1.652  0.2056E-08  0.1280E+03
     -1.591  0.1119E-09  0.1280E+03
     -1.530  0.5085E-11  0.1280E+03
     -1.469  0.1925E-12  0.1280E+03
     -1.408  0.6246E-14  0.1280E+03
     -1.347  0.0000E+00  0.1280E+03
     -1.286  0.0000E+00  0.1280E+03
     -1.226  0.0000E+00  0.1280E+03
     -1.165  0.0000E+00  0.1280E+03
     -1.104  0.0000E+00  0.1280E+03
     -1.043  0.0000E+00  0.1280E+03
     -0.982  0.0000E+00  0.1280E+03
     -0.921  0.0000E+00  0.1280E+03
     -0.860  0.0000E+00  0.1280E+03
     -0.799  0.1917E-14  0.1280E+03
     -0.738  0.6082E-13  0.1280E+03
     -0.677  0.1568E-11  0.1280E+03
     -0.616  0.3370E-10  0.1280E+03
     -0.555  0.6036E-09  0.1280E+03
     -0.494  0.9008E-08  0.1280E+03
     -0.434  0.1121E-06  0.1280E+03
     -0.373  0.1163E-05  0.1280E+03
     -0.312  0.1007E-04  0.1280E+03
     -0.251  0.7287E-04  0.1280E+03
     -0.190  0.4408E-03  0.1280E+03
     -0.129  0.2234E-02  0.1280E+03
     -0.068  0.9503E-02  0.1280E+03
     -0.007  0.3407E-01  0.1280E+03
      0.054  0.1035E+00  0.1280E+03
      0.115  0.2682E+00  0.1280E+03
      0.176  0.5997E+00  0.1281E+03
      0.237  0.1173E+01  0.1281E+03
      0.297  0.2040E+01  0.1283E+03
      0.358  0.3210E+01  0.1285E+03
      0.419  0.4639E+01  0.1287E+03
      0.480  0.6222E+01  0.1291E+03
      0.541  0.7799E+01  0.1296E+03
      0.602  0.9187E+01  0.1301E+03
      0.663  0.1023E+02  0.1308E+03
      0.724  0.1087E+02  0.1314E+03
      0.785  0.1111E+02  0.1321E+03
      0.846  0.1106E+02  0.1328E+03
      0.907  0.1091E+02  0.1335E+03
      0.968  0.1097E+02  0.1341E+03
      1.029  0.1162E+02  0.1348E+03
      1.089  0.1325E+02  0.1356E+03
      1.150  0.1595E+02  0.1366E+03
      1.211  0.1937E+02  0.1378E+03
      1.272  0.2270E+02  0.1392E+03
      1.333  0.2490E+02  0.1407E+03
      1.394  0.2531E+02  0.1422E+03
      1.455  0.2407E+02  0.1437E+03
      1.516  0.2206E+02  0.1450E+03
      1.577  0.2048E+02  0.1463E+03
      1.638  0.2024E+02  0.1475E+03
      1.699  0.2161E+02  0.1488E+03
      1.760  0.2412E+02  0.1503E+03
      1.820  0.2675E+02  0.1519E+03
      1.881  0.2843E+02  0.1537E+03
      1.942  0.2863E+02  0.1554E+03
      2.003  0.2755E+02  0.1571E+03
      2.064  0.2592E+02  0.1587E+03
      2.125  0.2452E+02  0.1602E+03
      2.186  0.2382E+02  0.1616E+03
      2.247  0.2400E+02  0.1631E+03
      2.308  0.2497E+02  0.1646E+03
      2.369  0.2649E+02  0.1662E+03
      2.430  0.2839E+02  0.1679E+03
      2.491  0.3068E+02  0.1698E+03
      2.552  0.3344E+02  0.1718E+03
      2.612  0.3647E+02  0.1741E+03
      2.673  0.3915E+02  0.1765E+03
      2.734  0.4071E+02  0.1789E+03
      2.795  0.4072E+02  0.1814E+03
      2.856  0.3933E+02  0.1838E+03
      2.917  0.3727E+02  0.1861E+03
      2.978  0.3545E+02  0.1882E+03
      3.039  0.3449E+02  0.1903E+03
      3.100  0.3449E+02  0.1924E+03
      3.161  0.3513E+02  0.1946E+03
      3.222  0.3607E+02  0.1968E+03
      3.283  0.3719E+02  0.1990E+03
      3.344  0.3844E+02  0.2014E+03
      3.404  0.3955E+02  0.2038E+03
      3.465  0.4004E+02  0.2062E+03
      3.526  0.3950E+02  0.2086E+03
      3.587  0.3791E+02  0.2109E+03
      3.648  0.3575E+02  0.2131E+03
      3.709  0.3379E+02  0.2152E+03
      3.770  0.3270E+02  0.2172E+03
      3.831  0.3283E+02  0.2192E+03
      3.892  0.3405E+02  0.2213E+03
      3.953  0.3591E+02  0.2234E+03
      4.014  0.3787E+02  0.2257E+03
      4.075  0.3931E+02  0.2281E+03
      4.135  0.3955E+02  0.2306E+03
      4.196  0.3799E+02  0.2329E+03
      4.257  0.3427E+02  0.2350E+03
      4.318  0.2857E+02  0.2367E+03
      4.379  0.2171E+02  0.2380E+03
      4.440  0.1484E+02  0.2389E+03
      4.501  0.9039E+01  0.2395E+03
      4.562  0.4874E+01  0.2398E+03
      4.623  0.2318E+01  0.2399E+03
      4.684  0.9719E+00  0.2400E+03
      4.745  0.3594E+00  0.2400E+03
      4.806  0.1173E+00  0.2400E+03
      4.867  0.3382E-01  0.2400E+03
      4.927  0.8590E-02  0.2400E+03
      4.988  0.1913E-02  0.2400E+03
      5.049  0.3709E-03  0.2400E+03
      5.110  0.6218E-04  0.2400E+03
      5.171  0.8947E-05  0.2400E+03
      5.232  0.1098E-05  0.2400E+03
      5.293  0.1142E-06  0.2400E+03
      5.354  0.1004E-07  0.2400E+03
      5.415  0.7427E-09  0.2400E+03
      5.476  0.4614E-10  0.2400E+03
      5.537  0.2401E-11  0.2400E+03
      5.598  0.1043E-12  0.2400E+03
      5.658  0.3759E-14  0.2400E+03
      5.719  0.9492E-16  0.2400E+03
      5.780  0.0000E+00  0.2400E+03
      5.841  0.0000E+00  0.2400E+03
      5.902  0.0000E+00  0.2400E+03
      5.963  0.0000E+00  0.2400E+03
      6.024  0.0000E+00  0.2400E+03
      6.085  0.0000E+00  0.2400E+03
      6.146  0.0000E+00  0.2400E+03
      6.207  0.0000E+00  0.2400E+03
      6.268  0.0000E+00  0.2400E+03
      6.329  0.0000E+00  0.2400E+03
      6.390  0.0000E+00  0.2400E+03
      6.450  0.0000E+00  0.2400E+03
      6.511  0.0000E+00  0.2400E+03
