   32   32    1    2
  0.9700889E+02  0.1270020E-08  0.1222140E-08  0.2000000E-08  0.5000000E-15
  1.000000000000000E-004
  CAR 
 test                                    
    192    192    116
 
  0.0000000E+00  0.0000000E+00  0.0000000E+00  0.5208333E-02
    1      -14.457291    -14.457289   1.000000   1.000000
    2      -14.339821    -14.339823   1.000000   1.000000
    3      -13.958191    -13.958177   1.000000   1.000000
    4      -13.919874    -13.919889   1.000000   1.000000
    5      -13.527657    -13.527657   1.000000   1.000000
    6      -13.511608    -13.511609   1.000000   1.000000
    7      -13.448177    -13.448177   1.000000   1.000000
    8      -13.293237    -13.293237   1.000000   1.000000
    9      -12.871074    -12.871073   1.000000   1.000000
   10      -12.683625    -12.683623   1.000000   1.000000
   11      -12.603588    -12.603591   1.000000   1.000000
   12      -12.417629    -12.417625   1.000000   1.000000
   13      -12.360349    -12.360349   1.000000   1.000000
   14      -12.284762    -12.284766   1.000000   1.000000
   15      -12.261768    -12.261767   1.000000   1.000000
   16      -11.944453    -11.944449   1.000000   1.000000
   17      -11.773808    -11.773809   1.000000   1.000000
   18      -11.752566    -11.752567   1.000000   1.000000
   19      -11.742194    -11.742193   1.000000   1.000000
   20      -11.667720    -11.667719   1.000000   1.000000
   21      -11.634484    -11.634483   1.000000   1.000000
   22      -11.588811    -11.588811   1.000000   1.000000
   23      -11.545752    -11.545756   1.000000   1.000000
   24      -11.463724    -11.463725   1.000000   1.000000
   25       -6.514301     -6.514300   1.000000   1.000000
   26       -6.448666     -6.448667   1.000000   1.000000
   27       -6.241102     -6.241103   1.000000   1.000000
   28       -6.092495     -6.092494   1.000000   1.000000
   29       -6.050928     -6.050930   1.000000   1.000000
   30       -5.988046     -5.988049   1.000000   1.000000
   31       -5.978396     -5.978411   1.000000   1.000000
   32       -5.956066     -5.956064   1.000000   1.000000
   33       -5.944767     -5.944752   1.000000   1.000000
   34       -5.874787     -5.874788   1.000000   1.000000
   35       -5.756744     -5.756746   1.000000   1.000000
   36       -5.604132     -5.604131   1.000000   1.000000
   37       -5.571421     -5.571417   1.000000   1.000000
   38       -5.512551     -5.512546   1.000000   1.000000
   39       -5.320218     -5.320218   1.000000   1.000000
   40       -5.186990     -5.186990   1.000000   1.000000
   41       -5.150776     -5.150776   1.000000   1.000000
   42       -5.107059     -5.107065   1.000000   1.000000
   43       -4.911923     -4.911915   1.000000   1.000000
   44       -4.858567     -4.858568   1.000000   1.000000
   45       -4.808698     -4.808698   1.000000   1.000000
   46       -4.689645     -4.689645   1.000000   1.000000
   47       -4.639836     -4.639836   1.000000   1.000000
   48       -4.639220     -4.639216   1.000000   1.000000
   49       -4.519279     -4.519285   1.000000   1.000000
   50       -4.404310     -4.404310   1.000000   1.000000
   51       -4.375941     -4.375939   1.000000   1.000000
   52       -4.369319     -4.369321   1.000000   1.000000
   53       -4.318917     -4.318923   1.000000   1.000000
   54       -4.281996     -4.281995   1.000000   1.000000
   55       -4.261917     -4.261916   1.000000   1.000000
   56       -4.187498     -4.187503   1.000000   1.000000
   57       -4.083375     -4.083373   1.000000   1.000000
   58       -4.060570     -4.060571   1.000000   1.000000
   59       -4.001285     -4.001283   1.000000   1.000000
   60       -3.972348     -3.972343   1.000000   1.000000
   61       -3.920865     -3.920864   1.000000   1.000000
   62       -3.812796     -3.812783   1.000000   1.000000
   63       -3.765458     -3.765455   1.000000   1.000000
   64       -3.764837     -3.764837   1.000000   1.000000
   65       -3.636145     -3.636146   1.000000   1.000000
   66       -3.615218     -3.615216   1.000000   1.000000
   67       -3.575467     -3.575471   1.000000   1.000000
   68       -3.515496     -3.515495   1.000000   1.000000
   69       -3.408410     -3.408410   1.000000   1.000000
   70       -3.391627     -3.391623   1.000000   1.000000
   71       -3.383462     -3.383471   1.000000   1.000000
   72       -3.301842     -3.301842   1.000000   1.000000
   73       -3.231349     -3.231353   1.000000   1.000000
   74       -3.175016     -3.175016   1.000000   1.000000
   75       -3.151694     -3.151694   1.000000   1.000000
   76       -3.079151     -3.079151   1.000000   1.000000
   77       -3.069978     -3.069978   1.000000   1.000000
   78       -2.995479     -2.995479   1.000000   1.000000
   79       -2.951494     -2.951492   1.000000   1.000000
   80       -2.950051     -2.950050   1.000000   1.000000
   81       -2.925475     -2.925475   1.000000   1.000000
   82       -2.852692     -2.852695   1.000000   1.000000
   83       -2.779614     -2.779612   1.000000   1.000000
   84       -2.698156     -2.698155   1.000000   1.000000
   85       -2.675630     -2.675629   1.000000   1.000000
   86       -2.612299     -2.612293   1.000000   1.000000
   87       -2.604937     -2.604939   1.000000   1.000000
   88       -2.556364     -2.556364   1.000000   1.000000
   89       -2.461045     -2.461042   1.000000   1.000000
   90       -2.447043     -2.447045   1.000000   1.000000
   91       -2.389503     -2.389505   1.000000   1.000000
   92       -2.263241     -2.263236   1.000000   1.000000
   93       -2.197328     -2.197328   1.000000   1.000000
   94       -2.125889     -2.125887   1.000000   1.000000
   95       -2.075418     -2.075417   1.000000   1.000000
   96       -1.783293     -1.783291   0.821747   0.821740
   97       -1.685964     -1.685965   0.324770   0.324775
   98       -1.447305     -1.447306   0.000064   0.000064
   99       -1.346435     -1.346429   0.000000   0.000000
  100       -1.288645     -1.288643   0.000000   0.000000
  101       -1.199402     -1.199399   0.000000   0.000000
  102       -1.143180     -1.143179   0.000000   0.000000
  103       -1.099726     -1.099728   0.000000   0.000000
  104       -0.940196     -0.940196   0.000000   0.000000
  105       -0.899623     -0.899628   0.000000   0.000000
  106       -0.715426     -0.715427   0.000000   0.000000
  107       -0.638453     -0.638458   0.000000   0.000000
  108       -0.550661     -0.550656   0.000000   0.000000
  109       -0.511041     -0.511041   0.000000   0.000000
  110       -0.447581     -0.447452   0.000000   0.000000
  111       -0.335454     -0.335146   0.000000   0.000000
  112       -0.317030     -0.316884   0.000000   0.000000
  113       -0.267077     -0.266709   0.000000   0.000000
  114       -0.253243     -0.235842   0.000000   0.000000
  115       -0.192744     -0.154402   0.000000   0.000000
  116       -0.097167     -0.059857   0.000000   0.000000
 
  0.3333333E-01  0.0000000E+00  0.0000000E+00  0.5208333E-02
    1      -14.456979    -14.456977   1.000000   1.000000
    2      -14.340132    -14.340134   1.000000   1.000000
    3      -13.958143    -13.958129   1.000000   1.000000
    4      -13.919924    -13.919938   1.000000   1.000000
    5      -13.527158    -13.527157   1.000000   1.000000
    6      -13.511677    -13.511678   1.000000   1.000000
    7      -13.448836    -13.448836   1.000000   1.000000
    8      -13.294102    -13.294102   1.000000   1.000000
    9      -12.869180    -12.869179   1.000000   1.000000
   10      -12.683635    -12.683632   1.000000   1.000000
   11      -12.603751    -12.603754   1.000000   1.000000
   12      -12.417458    -12.417455   1.000000   1.000000
   13      -12.361071    -12.361072   1.000000   1.000000
   14      -12.285106    -12.285110   1.000000   1.000000
   15      -12.260465    -12.260464   1.000000   1.000000
   16      -11.944661    -11.944657   1.000000   1.000000
   17      -11.775776    -11.775777   1.000000   1.000000
   18      -11.752535    -11.752537   1.000000   1.000000
   19      -11.742586    -11.742585   1.000000   1.000000
   20      -11.668219    -11.668219   1.000000   1.000000
   21      -11.632332    -11.632331   1.000000   1.000000
   22      -11.588824    -11.588824   1.000000   1.000000
   23      -11.545913    -11.545916   1.000000   1.000000
   24      -11.463829    -11.463829   1.000000   1.000000
   25       -6.513321     -6.513321   1.000000   1.000000
   26       -6.450583     -6.450585   1.000000   1.000000
   27       -6.237175     -6.237176   1.000000   1.000000
   28       -6.091881     -6.091880   1.000000   1.000000
   29       -6.055026     -6.055028   1.000000   1.000000
   30       -5.992244     -5.992259   1.000000   1.000000
   31       -5.990699     -5.990698   1.000000   1.000000
   32       -5.952431     -5.952423   1.000000   1.000000
   33       -5.928456     -5.928450   1.000000   1.000000
   34       -5.885723     -5.885724   1.000000   1.000000
   35       -5.742090     -5.742093   1.000000   1.000000
   36       -5.605437     -5.605436   1.000000   1.000000
   37       -5.571648     -5.571645   1.000000   1.000000
   38       -5.511114     -5.511109   1.000000   1.000000
   39       -5.321507     -5.321507   1.000000   1.000000
   40       -5.185275     -5.185275   1.000000   1.000000
   41       -5.171832     -5.171833   1.000000   1.000000
   42       -5.091566     -5.091572   1.000000   1.000000
   43       -4.912299     -4.912291   1.000000   1.000000
   44       -4.858813     -4.858815   1.000000   1.000000
   45       -4.808022     -4.808022   1.000000   1.000000
   46       -4.692080     -4.692080   1.000000   1.000000
   47       -4.641456     -4.641453   1.000000   1.000000
   48       -4.638060     -4.638060   1.000000   1.000000
   49       -4.518143     -4.518149   1.000000   1.000000
   50       -4.404044     -4.404044   1.000000   1.000000
   51       -4.374479     -4.374477   1.000000   1.000000
   52       -4.370101     -4.370104   1.000000   1.000000
   53       -4.317204     -4.317210   1.000000   1.000000
   54       -4.284183     -4.284183   1.000000   1.000000
   55       -4.259757     -4.259756   1.000000   1.000000
   56       -4.186983     -4.186988   1.000000   1.000000
   57       -4.085997     -4.085995   1.000000   1.000000
   58       -4.060218     -4.060219   1.000000   1.000000
   59       -4.000513     -4.000512   1.000000   1.000000
   60       -3.971021     -3.971016   1.000000   1.000000
   61       -3.920339     -3.920338   1.000000   1.000000
   62       -3.812614     -3.812601   1.000000   1.000000
   63       -3.771122     -3.771121   1.000000   1.000000
   64       -3.757027     -3.757025   1.000000   1.000000
   65       -3.648375     -3.648374   1.000000   1.000000
   66       -3.603122     -3.603121   1.000000   1.000000
   67       -3.577122     -3.577126   1.000000   1.000000
   68       -3.518712     -3.518711   1.000000   1.000000
   69       -3.413112     -3.413112   1.000000   1.000000
   70       -3.391496     -3.391492   1.000000   1.000000
   71       -3.383478     -3.383485   1.000000   1.000000
   72       -3.301398     -3.301398   1.000000   1.000000
   73       -3.231640     -3.231644   1.000000   1.000000
   74       -3.174739     -3.174738   1.000000   1.000000
   75       -3.154549     -3.154549   1.000000   1.000000
   76       -3.078984     -3.078984   1.000000   1.000000
   77       -3.069185     -3.069184   1.000000   1.000000
   78       -2.992582     -2.992583   1.000000   1.000000
   79       -2.955430     -2.955430   1.000000   1.000000
   80       -2.951321     -2.951320   1.000000   1.000000
   81       -2.920089     -2.920089   1.000000   1.000000
   82       -2.851213     -2.851215   1.000000   1.000000
   83       -2.779838     -2.779835   1.000000   1.000000
   84       -2.698185     -2.698183   1.000000   1.000000
   85       -2.675346     -2.675345   1.000000   1.000000
   86       -2.613008     -2.613002   1.000000   1.000000
   87       -2.605645     -2.605647   1.000000   1.000000
   88       -2.556645     -2.556644   1.000000   1.000000
   89       -2.463384     -2.463380   1.000000   1.000000
   90       -2.448079     -2.448081   1.000000   1.000000
   91       -2.390736     -2.390738   1.000000   1.000000
   92       -2.262386     -2.262381   1.000000   1.000000
   93       -2.196152     -2.196152   1.000000   1.000000
   94       -2.124515     -2.124514   1.000000   1.000000
   95       -2.074399     -2.074398   1.000000   1.000000
   96       -1.782411     -1.782409   0.818476   0.818469
   97       -1.683123     -1.683124   0.310452   0.310458
   98       -1.446750     -1.446750   0.000062   0.000062
   99       -1.344560     -1.344554   0.000000   0.000000
  100       -1.290504     -1.290503   0.000000   0.000000
  101       -1.199713     -1.199711   0.000000   0.000000
  102       -1.144951     -1.144950   0.000000   0.000000
  103       -1.096337     -1.096339   0.000000   0.000000
  104       -0.944052     -0.944052   0.000000   0.000000
  105       -0.892992     -0.892997   0.000000   0.000000
  106       -0.716662     -0.716665   0.000000   0.000000
  107       -0.636815     -0.636825   0.000000   0.000000
  108       -0.549825     -0.549845   0.000000   0.000000
  109       -0.513329     -0.513482   0.000000   0.000000
  110       -0.453251     -0.453550   0.000000   0.000000
  111       -0.325249     -0.329651   0.000000   0.000000
  112       -0.321962     -0.322011   0.000000   0.000000
  113       -0.261732     -0.261646   0.000000   0.000000
  114       -0.257260     -0.259017   0.000000   0.000000
  115       -0.127407     -0.187065   0.000000   0.000000
  116       -0.063403     -0.094988   0.000000   0.000000
 
  0.6666667E-01  0.0000000E+00  0.0000000E+00  0.5208333E-02
    1      -14.456047    -14.456045   1.000000   1.000000
    2      -14.341063    -14.341065   1.000000   1.000000
    3      -13.958002    -13.957987   1.000000   1.000000
    4      -13.920070    -13.920085   1.000000   1.000000
    5      -13.525662    -13.525661   1.000000   1.000000
    6      -13.511879    -13.511879   1.000000   1.000000
    7      -13.450769    -13.450769   1.000000   1.000000
    8      -13.296676    -13.296675   1.000000   1.000000
    9      -12.863552    -12.863551   1.000000   1.000000
   10      -12.683660    -12.683657   1.000000   1.000000
   11      -12.604233    -12.604236   1.000000   1.000000
   12      -12.416949    -12.416945   1.000000   1.000000
   13      -12.363269    -12.363270   1.000000   1.000000
   14      -12.286129    -12.286132   1.000000   1.000000
   15      -12.256587    -12.256587   1.000000   1.000000
   16      -11.945309    -11.945305   1.000000   1.000000
   17      -11.781194    -11.781195   1.000000   1.000000
   18      -11.752453    -11.752454   1.000000   1.000000
   19      -11.743790    -11.743789   1.000000   1.000000
   20      -11.669682    -11.669682   1.000000   1.000000
   21      -11.626303    -11.626301   1.000000   1.000000
   22      -11.588862    -11.588862   1.000000   1.000000
   23      -11.546389    -11.546392   1.000000   1.000000
   24      -11.464144    -11.464145   1.000000   1.000000
   25       -6.510415     -6.510415   1.000000   1.000000
   26       -6.455827     -6.455828   1.000000   1.000000
   27       -6.225936     -6.225937   1.000000   1.000000
   28       -6.090532     -6.090531   1.000000   1.000000
   29       -6.067296     -6.067297   1.000000   1.000000
   30       -6.009027     -6.009037   1.000000   1.000000
   31       -6.002166     -6.002165   1.000000   1.000000
   32       -5.942599     -5.942591   1.000000   1.000000
   33       -5.905333     -5.905332   1.000000   1.000000
   34       -5.900734     -5.900735   1.000000   1.000000
   35       -5.710909     -5.710912   1.000000   1.000000
   36       -5.609209     -5.609205   1.000000   1.000000
   37       -5.571320     -5.571320   1.000000   1.000000
   38       -5.506750     -5.506744   1.000000   1.000000
   39       -5.325408     -5.325408   1.000000   1.000000
   40       -5.209966     -5.209967   1.000000   1.000000
   41       -5.179950     -5.179951   1.000000   1.000000
   42       -5.070917     -5.070923   1.000000   1.000000
   43       -4.913386     -4.913378   1.000000   1.000000
   44       -4.859251     -4.859253   1.000000   1.000000
   45       -4.805474     -4.805474   1.000000   1.000000
   46       -4.698878     -4.698878   1.000000   1.000000
   47       -4.648424     -4.648422   1.000000   1.000000
   48       -4.633091     -4.633091   1.000000   1.000000
   49       -4.514201     -4.514206   1.000000   1.000000
   50       -4.403300     -4.403300   1.000000   1.000000
   51       -4.374945     -4.374943   1.000000   1.000000
   52       -4.368574     -4.368577   1.000000   1.000000
   53       -4.312618     -4.312625   1.000000   1.000000
   54       -4.287844     -4.287842   1.000000   1.000000
   55       -4.255154     -4.255153   1.000000   1.000000
   56       -4.185693     -4.185698   1.000000   1.000000
   57       -4.093770     -4.093768   1.000000   1.000000
   58       -4.058416     -4.058416   1.000000   1.000000
   59       -3.998299     -3.998298   1.000000   1.000000
   60       -3.967500     -3.967496   1.000000   1.000000
   61       -3.918795     -3.918795   1.000000   1.000000
   62       -3.812091     -3.812078   1.000000   1.000000
   63       -3.776234     -3.776234   1.000000   1.000000
   64       -3.745694     -3.745691   1.000000   1.000000
   65       -3.667128     -3.667128   1.000000   1.000000
   66       -3.585079     -3.585079   1.000000   1.000000
   67       -3.581906     -3.581909   1.000000   1.000000
   68       -3.527580     -3.527579   1.000000   1.000000
   69       -3.426031     -3.426032   1.000000   1.000000
   70       -3.391986     -3.391983   1.000000   1.000000
   71       -3.383689     -3.383695   1.000000   1.000000
   72       -3.300093     -3.300093   1.000000   1.000000
   73       -3.232693     -3.232697   1.000000   1.000000
   74       -3.174811     -3.174811   1.000000   1.000000
   75       -3.162182     -3.162181   1.000000   1.000000
   76       -3.078837     -3.078838   1.000000   1.000000
   77       -3.066288     -3.066286   1.000000   1.000000
   78       -2.984523     -2.984523   1.000000   1.000000
   79       -2.965432     -2.965432   1.000000   1.000000
   80       -2.950825     -2.950823   1.000000   1.000000
   81       -2.909914     -2.909914   1.000000   1.000000
   82       -2.846950     -2.846953   1.000000   1.000000
   83       -2.780427     -2.780425   1.000000   1.000000
   84       -2.698255     -2.698254   1.000000   1.000000
   85       -2.674513     -2.674512   1.000000   1.000000
   86       -2.615028     -2.615022   1.000000   1.000000
   87       -2.607731     -2.607733   1.000000   1.000000
   88       -2.557573     -2.557573   1.000000   1.000000
   89       -2.469959     -2.469956   1.000000   1.000000
   90       -2.451077     -2.451079   1.000000   1.000000
   91       -2.394429     -2.394431   1.000000   1.000000
   92       -2.260139     -2.260134   1.000000   1.000000
   93       -2.192704     -2.192704   1.000000   1.000000
   94       -2.120459     -2.120458   1.000000   1.000000
   95       -2.071351     -2.071351   1.000000   1.000000
   96       -1.779908     -1.779906   0.808989   0.808982
   97       -1.674651     -1.674652   0.269481   0.269486
   98       -1.445057     -1.445058   0.000056   0.000056
   99       -1.339009     -1.339003   0.000000   0.000000
  100       -1.295614     -1.295612   0.000000   0.000000
  101       -1.200623     -1.200620   0.000000   0.000000
  102       -1.149890     -1.149889   0.000000   0.000000
  103       -1.086671     -1.086673   0.000000   0.000000
  104       -0.951643     -0.951642   0.000000   0.000000
  105       -0.877461     -0.877463   0.000000   0.000000
  106       -0.720420     -0.720429   0.000000   0.000000
  107       -0.631903     -0.631933   0.000000   0.000000
  108       -0.547454     -0.547392   0.000000   0.000000
  109       -0.522241     -0.522050   0.000000   0.000000
  110       -0.466193     -0.466135   0.000000   0.000000
  111       -0.333335     -0.333062   0.000000   0.000000
  112       -0.312320     -0.299453   0.000000   0.000000
  113       -0.273870     -0.273723   0.000000   0.000000
  114       -0.235794     -0.239948   0.000000   0.000000
  115       -0.152026     -0.130917   0.000000   0.000000
  116       -0.082356     -0.040408   0.000000   0.000000
 
  0.1000000E+00  0.0000000E+00  0.0000000E+00  0.5208333E-02
    1      -14.454504    -14.454501   1.000000   1.000000
    2      -14.342606    -14.342608   1.000000   1.000000
    3      -13.957770    -13.957756   1.000000   1.000000
    4      -13.920310    -13.920324   1.000000   1.000000
    5      -13.523177    -13.523177   1.000000   1.000000
    6      -13.512197    -13.512197   1.000000   1.000000
    7      -13.453854    -13.453854   1.000000   1.000000
    8      -13.300893    -13.300893   1.000000   1.000000
    9      -12.854351    -12.854350   1.000000   1.000000
   10      -12.683694    -12.683691   1.000000   1.000000
   11      -12.605016    -12.605019   1.000000   1.000000
   12      -12.416105    -12.416101   1.000000   1.000000
   13      -12.367029    -12.367029   1.000000   1.000000
   14      -12.287794    -12.287797   1.000000   1.000000
   15      -12.250225    -12.250224   1.000000   1.000000
   16      -11.946464    -11.946461   1.000000   1.000000
   17      -11.788941    -11.788942   1.000000   1.000000
   18      -11.752352    -11.752354   1.000000   1.000000
   19      -11.745840    -11.745840   1.000000   1.000000
   20      -11.672010    -11.672010   1.000000   1.000000
   21      -11.617391    -11.617389   1.000000   1.000000
   22      -11.588920    -11.588921   1.000000   1.000000
   23      -11.547169    -11.547173   1.000000   1.000000
   24      -11.464675    -11.464675   1.000000   1.000000
   25       -6.505676     -6.505676   1.000000   1.000000
   26       -6.463203     -6.463204   1.000000   1.000000
   27       -6.208695     -6.208696   1.000000   1.000000
   28       -6.090702     -6.090698   1.000000   1.000000
   29       -6.086601     -6.086606   1.000000   1.000000
   30       -6.021499     -6.021506   1.000000   1.000000
   31       -6.019497     -6.019497   1.000000   1.000000
   32       -5.928531     -5.928524   1.000000   1.000000
   33       -5.918755     -5.918756   1.000000   1.000000
   34       -5.871222     -5.871223   1.000000   1.000000
   35       -5.680041     -5.680044   1.000000   1.000000
   36       -5.612953     -5.612946   1.000000   1.000000
   37       -5.569100     -5.569103   1.000000   1.000000
   38       -5.498488     -5.498481   1.000000   1.000000
   39       -5.332015     -5.332014   1.000000   1.000000
   40       -5.252789     -5.252791   1.000000   1.000000
   41       -5.172832     -5.172833   1.000000   1.000000
   42       -5.057076     -5.057082   1.000000   1.000000
   43       -4.915215     -4.915207   1.000000   1.000000
   44       -4.859073     -4.859074   1.000000   1.000000
   45       -4.799840     -4.799840   1.000000   1.000000
   46       -4.708875     -4.708875   1.000000   1.000000
   47       -4.660176     -4.660175   1.000000   1.000000
   48       -4.625736     -4.625736   1.000000   1.000000
   49       -4.506829     -4.506834   1.000000   1.000000
   50       -4.402184     -4.402184   1.000000   1.000000
   51       -4.378993     -4.378992   1.000000   1.000000
   52       -4.365928     -4.365931   1.000000   1.000000
   53       -4.306311     -4.306319   1.000000   1.000000
   54       -4.288405     -4.288402   1.000000   1.000000
   55       -4.249891     -4.249891   1.000000   1.000000
   56       -4.184227     -4.184232   1.000000   1.000000
   57       -4.105668     -4.105666   1.000000   1.000000
   58       -4.054258     -4.054258   1.000000   1.000000
   59       -3.994938     -3.994937   1.000000   1.000000
   60       -3.962696     -3.962692   1.000000   1.000000
   61       -3.916346     -3.916345   1.000000   1.000000
   62       -3.811276     -3.811263   1.000000   1.000000
   63       -3.781390     -3.781390   1.000000   1.000000
   64       -3.730842     -3.730838   1.000000   1.000000
   65       -3.686287     -3.686286   1.000000   1.000000
   66       -3.589388     -3.589392   1.000000   1.000000
   67       -3.569216     -3.569216   1.000000   1.000000
   68       -3.538920     -3.538918   1.000000   1.000000
   69       -3.445249     -3.445250   1.000000   1.000000
   70       -3.394039     -3.394036   1.000000   1.000000
   71       -3.384536     -3.384542   1.000000   1.000000
   72       -3.298115     -3.298115   1.000000   1.000000
   73       -3.235109     -3.235112   1.000000   1.000000
   74       -3.177468     -3.177469   1.000000   1.000000
   75       -3.172073     -3.172071   1.000000   1.000000
   76       -3.079391     -3.079393   1.000000   1.000000
   77       -3.060353     -3.060350   1.000000   1.000000
   78       -2.976085     -2.976083   1.000000   1.000000
   79       -2.972273     -2.972277   1.000000   1.000000
   80       -2.949825     -2.949824   1.000000   1.000000
   81       -2.899136     -2.899135   1.000000   1.000000
   82       -2.840429     -2.840432   1.000000   1.000000
   83       -2.781161     -2.781159   1.000000   1.000000
   84       -2.698321     -2.698320   1.000000   1.000000
   85       -2.673188     -2.673187   1.000000   1.000000
   86       -2.618065     -2.618059   1.000000   1.000000
   87       -2.611094     -2.611095   1.000000   1.000000
   88       -2.559389     -2.559388   1.000000   1.000000
   89       -2.479608     -2.479605   1.000000   1.000000
   90       -2.455775     -2.455777   1.000000   1.000000
   91       -2.400542     -2.400544   1.000000   1.000000
   92       -2.257243     -2.257238   1.000000   1.000000
   93       -2.187219     -2.187218   1.000000   1.000000
   94       -2.113936     -2.113935   1.000000   1.000000
   95       -2.066303     -2.066303   1.000000   1.000000
   96       -1.776204     -1.776202   0.794402   0.794394
   97       -1.660696     -1.660697   0.208470   0.208474
   98       -1.442135     -1.442135   0.000048   0.000048
   99       -1.330004     -1.329997   0.000000   0.000000
  100       -1.302870     -1.302870   0.000000   0.000000
  101       -1.202063     -1.202060   0.000000   0.000000
  102       -1.157037     -1.157037   0.000000   0.000000
  103       -1.071929     -1.071931   0.000000   0.000000
  104       -0.959416     -0.959414   0.000000   0.000000
  105       -0.857610     -0.857586   0.000000   0.000000
  106       -0.726856     -0.726856   0.000000   0.000000
  107       -0.623867     -0.623889   0.000000   0.000000
  108       -0.543903     -0.543889   0.000000   0.000000
  109       -0.540001     -0.539613   0.000000   0.000000
  110       -0.477151     -0.477150   0.000000   0.000000
  111       -0.346714     -0.346958   0.000000   0.000000
  112       -0.300983     -0.296946   0.000000   0.000000
  113       -0.284961     -0.265931   0.000000   0.000000
  114       -0.215028     -0.226801   0.000000   0.000000
  115       -0.160232     -0.072984   0.000000   0.000000
  116       -0.041862     -0.054576   0.000000   0.000000
 
  0.1333333E+00  0.0000000E+00  0.0000000E+00  0.5208333E-02
    1      -14.452365    -14.452363   1.000000   1.000000
    2      -14.344743    -14.344745   1.000000   1.000000
    3      -13.957456    -13.957441   1.000000   1.000000
    4      -13.920634    -13.920649   1.000000   1.000000
    5      -13.519719    -13.519719   1.000000   1.000000
    6      -13.512603    -13.512603   1.000000   1.000000
    7      -13.457905    -13.457905   1.000000   1.000000
    8      -13.306654    -13.306654   1.000000   1.000000
    9      -12.841821    -12.841820   1.000000   1.000000
   10      -12.683726    -12.683723   1.000000   1.000000
   11      -12.606071    -12.606074   1.000000   1.000000
   12      -12.414937    -12.414933   1.000000   1.000000
   13      -12.372480    -12.372480   1.000000   1.000000
   14      -12.290047    -12.290050   1.000000   1.000000
   15      -12.241522    -12.241521   1.000000   1.000000
   16      -11.948237    -11.948233   1.000000   1.000000
   17      -11.797810    -11.797810   1.000000   1.000000
   18      -11.752301    -11.752301   1.000000   1.000000
   19      -11.748719    -11.748720   1.000000   1.000000
   20      -11.675043    -11.675043   1.000000   1.000000
   21      -11.606668    -11.606664   1.000000   1.000000
   22      -11.588988    -11.588990   1.000000   1.000000
   23      -11.548233    -11.548237   1.000000   1.000000
   24      -11.465425    -11.465426   1.000000   1.000000
   25       -6.499258     -6.499257   1.000000   1.000000
   26       -6.471414     -6.471416   1.000000   1.000000
   27       -6.186957     -6.186958   1.000000   1.000000
   28       -6.110095     -6.110096   1.000000   1.000000
   29       -6.098961     -6.098961   1.000000   1.000000
   30       -6.037376     -6.037376   1.000000   1.000000
   31       -6.026028     -6.026032   1.000000   1.000000
   32       -5.925353     -5.925356   1.000000   1.000000
   33       -5.909972     -5.909965   1.000000   1.000000
   34       -5.841418     -5.841420   1.000000   1.000000
   35       -5.664762     -5.664764   1.000000   1.000000
   36       -5.608287     -5.608278   1.000000   1.000000
   37       -5.565406     -5.565411   1.000000   1.000000
   38       -5.483295     -5.483288   1.000000   1.000000
   39       -5.341414     -5.341413   1.000000   1.000000
   40       -5.298420     -5.298421   1.000000   1.000000
   41       -5.165265     -5.165266   1.000000   1.000000
   42       -5.051720     -5.051727   1.000000   1.000000
   43       -4.918114     -4.918105   1.000000   1.000000
   44       -4.857209     -4.857210   1.000000   1.000000