  32  32   1   0
  0.3830779E+02  0.9977512E-09  0.9977512E-09  0.1421877E-08  0.5000000E-15
  1.000000000000000E-004
  CAR 
 unknown system                          
      5.22684438    -24.21431600  301     -2.52561117      1.00000000
    -24.214  0.0000E+00  0.0000E+00
    -24.116  0.0000E+00  0.0000E+00
    -24.018  0.0000E+00  0.0000E+00
    -23.920  0.0000E+00  0.0000E+00
    -23.822  0.0000E+00  0.0000E+00
    -23.724  0.0000E+00  0.0000E+00
    -23.625  0.0000E+00  0.0000E+00
    -23.527  0.0000E+00  0.0000E+00
    -23.429  0.0000E+00  0.0000E+00
    -23.331  0.6788E-14  0.6661E-15
    -23.233  0.1442E-11  0.1421E-12
    -23.135  0.2033E-09  0.2009E-10
    -23.037  0.1799E-07  0.1786E-08
    -22.939  0.1000E-05  0.9993E-07
    -22.840  0.3495E-04  0.3530E-05
    -22.742  0.7685E-03  0.7895E-04
    -22.644  0.1065E-01  0.1124E-02
    -22.546  0.9296E-01  0.1025E-01
    -22.448  0.5123E+00  0.6052E-01
    -22.350  0.1783E+01  0.2355E+00
    -22.252  0.3921E+01  0.6203E+00
    -22.153  0.5449E+01  0.1155E+01
    -22.055  0.4787E+01  0.1625E+01
    -21.957  0.2656E+01  0.1885E+01
    -21.859  0.9326E+00  0.1977E+01
    -21.761  0.2317E+00  0.2000E+01
    -21.663  0.2173E+00  0.2021E+01
    -21.565  0.8617E+00  0.2106E+01
    -21.466  0.2496E+01  0.2351E+01
    -21.368  0.4706E+01  0.2812E+01
    -21.270  0.5996E+01  0.3401E+01
    -21.172  0.5726E+01  0.3963E+01
    -21.074  0.5100E+01  0.4463E+01
    -20.976  0.5086E+01  0.4962E+01
    -20.878  0.5170E+01  0.5470E+01
    -20.780  0.5027E+01  0.5963E+01
    -20.681  0.5405E+01  0.6493E+01
    -20.583  0.6474E+01  0.7129E+01
    -20.485  0.7561E+01  0.7871E+01
    -20.387  0.8196E+01  0.8675E+01
    -20.289  0.7814E+01  0.9442E+01
    -20.191  0.6531E+01  0.1008E+02
    -20.093  0.5873E+01  0.1066E+02
    -19.994  0.6269E+01  0.1127E+02
    -19.896  0.6518E+01  0.1191E+02
    -19.798  0.6897E+01  0.1259E+02
    -19.700  0.8337E+01  0.1341E+02
    -19.602  0.9313E+01  0.1432E+02
    -19.504  0.8291E+01  0.1514E+02
    -19.406  0.6844E+01  0.1581E+02
    -19.307  0.7003E+01  0.1650E+02
    -19.209  0.8157E+01  0.1730E+02
    -19.111  0.8743E+01  0.1815E+02
    -19.013  0.8906E+01  0.1903E+02
    -18.915  0.9557E+01  0.1997E+02
    -18.817  0.1072E+02  0.2102E+02
    -18.719  0.1184E+02  0.2218E+02
    -18.620  0.1253E+02  0.2341E+02
    -18.522  0.1286E+02  0.2467E+02
    -18.424  0.1278E+02  0.2593E+02
    -18.326  0.1182E+02  0.2709E+02
    -18.228  0.9922E+01  0.2806E+02
    -18.130  0.7893E+01  0.2883E+02
    -18.032  0.5905E+01  0.2941E+02
    -17.934  0.3663E+01  0.2977E+02
    -17.835  0.1666E+01  0.2994E+02
    -17.737  0.5217E+00  0.2999E+02
    -17.639  0.1096E+00  0.3000E+02
    -17.541  0.1523E-01  0.3000E+02
    -17.443  0.1381E-02  0.3000E+02
    -17.345  0.8076E-04  0.3000E+02
    -17.247  0.3017E-05  0.3000E+02
    -17.148  0.7141E-07  0.3000E+02
    -17.050  0.1064E-08  0.3000E+02
    -16.952  0.1043E-10  0.3000E+02
    -16.854  0.7391E-10  0.3000E+02
    -16.756  0.7189E-08  0.3000E+02
    -16.658  0.4398E-06  0.3000E+02
    -16.560  0.1692E-04  0.3000E+02
    -16.461  0.4100E-03  0.3000E+02
    -16.363  0.6260E-02  0.3000E+02
    -16.265  0.6029E-01  0.3001E+02
    -16.167  0.3667E+00  0.3004E+02
    -16.069  0.1410E+01  0.3018E+02
    -15.971  0.3426E+01  0.3052E+02
    -15.873  0.5266E+01  0.3103E+02
    -15.775  0.5121E+01  0.3154E+02
    -15.676  0.3149E+01  0.3185E+02
    -15.578  0.1223E+01  0.3197E+02
    -15.480  0.2999E+00  0.3199E+02
    -15.382  0.4636E-01  0.3200E+02
    -15.284  0.4509E-02  0.3200E+02
    -15.186  0.2756E-03  0.3200E+02
    -15.088  0.1057E-04  0.3200E+02
    -14.989  0.2539E-06  0.3200E+02
    -14.891  0.3817E-08  0.3200E+02
    -14.793  0.3587E-10  0.3200E+02
    -14.695  0.6103E-11  0.3200E+02
    -14.597  0.6138E-09  0.3200E+02
    -14.499  0.3993E-07  0.3200E+02
    -14.401  0.1626E-05  0.3200E+02
    -14.302  0.4171E-04  0.3200E+02
    -14.204  0.6802E-03  0.3200E+02
    -14.106  0.7180E-02  0.3200E+02
    -14.008  0.5056E-01  0.3201E+02
    -13.910  0.2477E+00  0.3203E+02
    -13.812  0.8775E+00  0.3212E+02
    -13.714  0.2267E+01  0.3234E+02
    -13.615  0.4157E+01  0.3275E+02
    -13.517  0.5200E+01  0.3326E+02
    -13.419  0.4294E+01  0.3368E+02
    -13.321  0.2298E+01  0.3390E+02
    -13.223  0.8078E+00  0.3398E+02
    -13.125  0.2946E+00  0.3401E+02
    -13.027  0.4934E+00  0.3406E+02
    -12.929  0.1310E+01  0.3419E+02
    -12.830  0.2882E+01  0.3447E+02
    -12.732  0.5237E+01  0.3499E+02
    -12.634  0.7778E+01  0.3575E+02
    -12.536  0.9442E+01  0.3668E+02
    -12.438  0.9726E+01  0.3763E+02
    -12.340  0.9118E+01  0.3852E+02
    -12.242  0.8821E+01  0.3939E+02
    -12.143  0.1000E+02  0.4037E+02
    -12.045  0.1225E+02  0.4157E+02
    -11.947  0.1316E+02  0.4287E+02
    -11.849  0.1116E+02  0.4396E+02
    -11.751  0.7952E+01  0.4474E+02
    -11.653  0.6232E+01  0.4535E+02
    -11.555  0.6254E+01  0.4597E+02
    -11.456  0.6505E+01  0.4660E+02
    -11.358  0.5830E+01  0.4718E+02
    -11.260  0.4556E+01  0.4762E+02
    -11.162  0.4294E+01  0.4805E+02
    -11.064  0.5959E+01  0.4863E+02
    -10.966  0.8330E+01  0.4945E+02
    -10.868  0.9607E+01  0.5039E+02
    -10.770  0.9356E+01  0.5131E+02
    -10.671  0.8358E+01  0.5213E+02
    -10.573  0.7616E+01  0.5288E+02
    -10.475  0.7364E+01  0.5360E+02
    -10.377  0.6916E+01  0.5428E+02
    -10.279  0.5740E+01  0.5484E+02
    -10.181  0.4671E+01  0.5530E+02
    -10.083  0.5302E+01  0.5582E+02
     -9.984  0.7695E+01  0.5657E+02
     -9.886  0.9965E+01  0.5755E+02
     -9.788  0.1073E+02  0.5861E+02
     -9.690  0.1035E+02  0.5962E+02
     -9.592  0.9447E+01  0.6055E+02
     -9.494  0.8498E+01  0.6138E+02
     -9.396  0.8725E+01  0.6224E+02
     -9.297  0.1081E+02  0.6330E+02
     -9.199  0.1300E+02  0.6458E+02
     -9.101  0.1297E+02  0.6585E+02
     -9.003  0.1137E+02  0.6696E+02
     -8.905  0.1066E+02  0.6801E+02
     -8.807  0.1174E+02  0.6916E+02
     -8.709  0.1380E+02  0.7052E+02
     -8.611  0.1507E+02  0.7200E+02
     -8.512  0.1433E+02  0.7340E+02
     -8.414  0.1309E+02  0.7469E+02
     -8.316  0.1419E+02  0.7608E+02
     -8.218  0.1747E+02  0.7779E+02
     -8.120  0.1976E+02  0.7973E+02
     -8.022  0.1954E+02  0.8165E+02
     -7.924  0.1840E+02  0.8346E+02
     -7.825  0.1713E+02  0.8514E+02
     -7.727  0.1510E+02  0.8662E+02
     -7.629  0.1309E+02  0.8790E+02
     -7.531  0.1254E+02  0.8913E+02
     -7.433  0.1311E+02  0.9042E+02
     -7.335  0.1355E+02  0.9175E+02
     -7.237  0.1380E+02  0.9310E+02
     -7.138  0.1387E+02  0.9447E+02
     -7.040  0.1344E+02  0.9578E+02
     -6.942  0.1310E+02  0.9707E+02
     -6.844  0.1259E+02  0.9831E+02
     -6.746  0.1094E+02  0.9938E+02
     -6.648  0.9345E+01  0.1003E+03
     -6.550  0.9600E+01  0.1012E+03
     -6.451  0.1084E+02  0.1023E+03
     -6.353  0.1121E+02  0.1034E+03
     -6.255  0.1105E+02  0.1045E+03
     -6.157  0.1189E+02  0.1057E+03
     -6.059  0.1351E+02  0.1070E+03
     -5.961  0.1371E+02  0.1083E+03
     -5.863  0.1140E+02  0.1094E+03
     -5.765  0.8336E+01  0.1103E+03
     -5.666  0.6920E+01  0.1109E+03
     -5.568  0.7881E+01  0.1117E+03
     -5.470  0.9857E+01  0.1127E+03
     -5.372  0.1098E+02  0.1138E+03
     -5.274  0.1158E+02  0.1149E+03
     -5.176  0.1306E+02  0.1162E+03
     -5.078  0.1460E+02  0.1176E+03
     -4.979  0.1446E+02  0.1190E+03
     -4.881  0.1274E+02  0.1203E+03
     -4.783  0.1064E+02  0.1213E+03
     -4.685  0.9118E+01  0.1222E+03
     -4.587  0.8184E+01  0.1230E+03
     -4.489  0.7084E+01  0.1237E+03
     -4.391  0.5936E+01  0.1243E+03
     -4.292  0.5487E+01  0.1248E+03
     -4.194  0.5123E+01  0.1253E+03
     -4.096  0.3858E+01  0.1257E+03
     -3.998  0.2242E+01  0.1259E+03
     -3.900  0.1444E+01  0.1261E+03
     -3.802  0.1874E+01  0.1263E+03
     -3.704  0.3181E+01  0.1266E+03
     -3.606  0.4385E+01  0.1270E+03
     -3.507  0.4388E+01  0.1274E+03
     -3.409  0.3171E+01  0.1277E+03
     -3.311  0.1683E+01  0.1279E+03
     -3.213  0.6527E+00  0.1280E+03
     -3.115  0.1785E+00  0.1280E+03
     -3.017  0.3294E-01  0.1280E+03
     -2.919  0.3964E-02  0.1280E+03
     -2.820  0.3047E-03  0.1280E+03
     -2.722  0.1480E-04  0.1280E+03
     -2.624  0.4511E-06  0.1280E+03
     -2.526  0.8602E-08  0.1280E+03
     -2.428  0.1024E-09  0.1280E+03
     -2.330  0.7587E-12  0.1280E+03
     -2.232  0.3520E-14  0.1280E+03
     -2.133  0.0000E+00  0.1280E+03
     -2.035  0.0000E+00  0.1280E+03
     -1.937  0.0000E+00  0.1280E+03
     -1.839  0.0000E+00  0.1280E+03
     -1.741  0.0000E+00  0.1280E+03
     -1.643  0.0000E+00  0.1280E+03
     -1.545  0.0000E+00  0.1280E+03
     -1.446  0.0000E+00  0.1280E+03
     -1.348  0.4777E-14  0.1280E+03
     -1.250  0.1054E-11  0.1280E+03
     -1.152  0.1405E-09  0.1280E+03
     -1.054  0.1176E-07  0.1280E+03
     -0.956  0.6207E-06  0.1280E+03
     -0.858  0.2078E-04  0.1280E+03
     -0.760  0.4440E-03  0.1280E+03
     -0.661  0.6105E-02  0.1280E+03
     -0.563  0.5441E-01  0.1280E+03
     -0.465  0.3164E+00  0.1280E+03
     -0.367  0.1205E+01  0.1282E+03
     -0.269  0.3007E+01  0.1285E+03
     -0.171  0.4906E+01  0.1289E+03
     -0.073  0.5206E+01  0.1294E+03
      0.026  0.3572E+01  0.1298E+03
      0.124  0.1575E+01  0.1299E+03
      0.222  0.4439E+00  0.1300E+03
      0.320  0.8082E-01  0.1300E+03
      0.418  0.2327E-01  0.1300E+03
      0.516  0.1045E+00  0.1300E+03
      0.614  0.5148E+00  0.1301E+03
      0.713  0.1813E+01  0.1302E+03
      0.811  0.4750E+01  0.1307E+03
      0.909  0.9482E+01  0.1316E+03
      1.007  0.1439E+02  0.1330E+03
      1.105  0.1653E+02  0.1347E+03
      1.203  0.1473E+02  0.1361E+03
      1.301  0.1145E+02  0.1372E+03
      1.399  0.1004E+02  0.1382E+03
      1.498  0.1105E+02  0.1393E+03
      1.596  0.1311E+02  0.1406E+03
      1.694  0.1495E+02  0.1421E+03
      1.792  0.1489E+02  0.1435E+03
      1.890  0.1245E+02  0.1447E+03
      1.988  0.9779E+01  0.1457E+03
      2.086  0.8730E+01  0.1466E+03
      2.185  0.9671E+01  0.1475E+03
      2.283  0.1271E+02  0.1488E+03
      2.381  0.1650E+02  0.1504E+03
      2.479  0.1841E+02  0.1522E+03
      2.577  0.1811E+02  0.1540E+03
      2.675  0.1713E+02  0.1556E+03
      2.773  0.1568E+02  0.1572E+03
      2.872  0.1348E+02  0.1585E+03
      2.970  0.1185E+02  0.1597E+03
      3.068  0.1180E+02  0.1608E+03
      3.166  0.1192E+02  0.1620E+03
      3.264  0.1013E+02  0.1630E+03
      3.362  0.6425E+01  0.1636E+03
      3.460  0.2836E+01  0.1639E+03
      3.559  0.8342E+00  0.1640E+03
      3.657  0.1595E+00  0.1640E+03
      3.755  0.1954E-01  0.1640E+03
      3.853  0.1523E-02  0.1640E+03
      3.951  0.7514E-04  0.1640E+03
      4.049  0.2336E-05  0.1640E+03
      4.147  0.4567E-07  0.1640E+03
      4.245  0.5597E-09  0.1640E+03
      4.344  0.4291E-11  0.1640E+03
      4.442  0.2112E-13  0.1640E+03
      4.540  0.0000E+00  0.1640E+03
      4.638  0.0000E+00  0.1640E+03
      4.736  0.0000E+00  0.1640E+03
      4.834  0.0000E+00  0.1640E+03
      4.932  0.0000E+00  0.1640E+03
      5.031  0.0000E+00  0.1640E+03
      5.129  0.0000E+00  0.1640E+03
      5.227  0.0000E+00  0.1640E+03
      5.22684438    -24.21431600  301     -2.52561117      1.00000000
    -24.214  0.0000E+00  0.0000E+00  0.0000E+00  0.0000E+00  0.0000E+00  0.0000E+00  0.0000E+00  0.0000E+00  0.0000E+00
    -24.116  0.0000E+00  0.0000E+00  0.0000E+00  0.0000E+00  0.0000E+00  0.0000E+00  0.0000E+00  0.0000E+00  0.0000E+00
    -24.018  0.0000E+00  0.0000E+00  0.0000E+00  0.0000E+00  0.0000E+00  0.0000E+00  0.0000E+00  0.0000E+00  0.0000E+00
    -23.920  0.0000E+00  0.0000E+00  0.0000E+00  0.0000E+00  0.0000E+00  0.0000E+00  0.0000E+00  0.0000E+00  0.0000E+00
    -23.822  0.0000E+00  0.0000E+00  0.0000E+00  0.0000E+00  0.0000E+00  0.0000E+00  0.0000E+00  0.0000E+00  0.0000E+00
    -23.724  0.0000E+00  0.0000E+00  0.0000E+00  0.0000E+00  0.0000E+00  0.0000E+00  0.0000E+00  0.0000E+00  0.0000E+00
    -23.625  0.0000E+00  0.0000E+00  0.0000E+00  0.0000E+00  0.0000E+00  0.0000E+00  0.0000E+00  0.0000E+00  0.0000E+00
    -23.527  0.0000E+00  0.0000E+00  0.0000E+00  0.0000E+00  0.0000E+00  0.0000E+00  0.0000E+00  0.0000E+00  0.0000E+00
    -23.429  0.0000E+00  0.0000E+00  0.0000E+00  0.0000E+00  0.0000E+00  0.0000E+00  0.0000E+00  0.0000E+00  0.0000E+00
    -23.331  0.1093E-16  0.9780E-19  0.3539E-28  0.9488E-18  0.0000E+00  0.0000E+00  0.0000E+00  0.0000E+00  0.0000E+00
    -23.233  0.2267E-14  0.2136E-16  0.7460E-26  0.2080E-15  0.0000E+00  0.0000E+00  0.0000E+00  0.0000E+00  0.0000E+00
    -23.135  0.3033E-12  0.3218E-14  0.1030E-23  0.3126E-13  0.0000E+00  0.0000E+00  0.0000E+00  0.0000E+00  0.0000E+00
    -23.037  0.2541E-10  0.3029E-12  0.8928E-22  0.2933E-11  0.0000E+00  0.0000E+00  0.0000E+00  0.0000E+00  0.0000E+00
    -22.939  0.1336E-08  0.1782E-10  0.4857E-20  0.1719E-09  0.0000E+00  0.0000E+00  0.0000E+00  0.0000E+00  0.0000E+00
    -22.840  0.4414E-07  0.6565E-09  0.1661E-18  0.6302E-08  0.0000E+00  0.0000E+00  0.0000E+00  0.0000E+00  0.0000E+00
    -22.742  0.9179E-06  0.1515E-07  0.3575E-17  0.1446E-06  0.0000E+00  0.0000E+00  0.0000E+00  0.0000E+00  0.0000E+00
    -22.644  0.1203E-04  0.2192E-06  0.4846E-16  0.2081E-05  0.0000E+00  0.0000E+00  0.0000E+00  0.0000E+00  0.0000E+00
    -22.546  0.9959E-04  0.1992E-05  0.4144E-15  0.1879E-04  0.0000E+00  0.0000E+00  0.0000E+00  0.0000E+00  0.0000E+00
    -22.448  0.5211E-03  0.1139E-04  0.2237E-14  0.1066E-03  0.0000E+00  0.0000E+00  0.0000E+00  0.0000E+00  0.0000E+00
    -22.350  0.1726E-02  0.4096E-04  0.7629E-14  0.3808E-03  0.0000E+00  0.0000E+00  0.0000E+00  0.0000E+00  0.0000E+00
    -22.252  0.3621E-02  0.9282E-04  0.1645E-13  0.8564E-03  0.0000E+00  0.0000E+00  0.0000E+00  0.0000E+00  0.0000E+00
    -22.153  0.4813E-02  0.1326E-03  0.2242E-13  0.1214E-02  0.0000E+00  0.0000E+00  0.0000E+00  0.0000E+00  0.0000E+00
    -22.055  0.4055E-02  0.1195E-03  0.1933E-13  0.1084E-02  0.0000E+00  0.0000E+00  0.0000E+00  0.0000E+00  0.0000E+00
    -21.957  0.2167E-02  0.6786E-04  0.1053E-13  0.6106E-03  0.0000E+00  0.0000E+00  0.0000E+00  0.0000E+00  0.0000E+00
    -21.859  0.7838E-03  0.2463E-04  0.3707E-14  0.2167E-03  0.0000E+00  0.0000E+00  0.0000E+00  0.0000E+00  0.0000E+00
    -21.761  0.7598E-03  0.9750E-05  0.1769E-14  0.5024E-04  0.0000E+00  0.0000E+00  0.0000E+00  0.0000E+00  0.0000E+00
    -21.663  0.4348E-02  0.3351E-04  0.7187E-14  0.2086E-04  0.0000E+00  0.0000E+00  0.0000E+00  0.0000E+00  0.0000E+00
    -21.565  0.1962E-01  0.1590E-03  0.3241E-13  0.6983E-04  0.0000E+00  0.0000E+00  0.0000E+00  0.0000E+00  0.0000E+00
    -21.466  0.5671E-01  0.4943E-03  0.9571E-13  0.2372E-03  0.0000E+00  0.0000E+00  0.0000E+00  0.0000E+00  0.0000E+00
    -21.368  0.1062E+00  0.1002E-02  0.1883E-12  0.6127E-03  0.0000E+00  0.0000E+00  0.0000E+00  0.0000E+00  0.0000E+00
    -21.270  0.1335E+00  0.1368E-02  0.2643E-12  0.1312E-02  0.0000E+00  0.0000E+00  0.0000E+00  0.0000E+00  0.0000E+00
    -21.172  0.1222E+00  0.1338E-02  0.3059E-12  0.2516E-02  0.0000E+00  0.0000E+00  0.0000E+00  0.0000E+00  0.0000E+00
    -21.074  0.9642E-01  0.1059E-02  0.3511E-12  0.4375E-02  0.0000E+00  0.0000E+00  0.0000E+00  0.0000E+00  0.0000E+00
    -20.976  0.7893E-01  0.1060E-02  0.4050E-12  0.6431E-02  0.0000E+00  0.0000E+00  0.0000E+00  0.0000E+00  0.0000E+00
    -20.878  0.6481E-01  0.2505E-02  0.3907E-12  0.7491E-02  0.0000E+00  0.0000E+00  0.0000E+00  0.0000E+00  0.0000E+00
    -20.780  0.4736E-01  0.7283E-02  0.2725E-12  0.7515E-02  0.0000E+00  0.0000E+00  0.0000E+00  0.0000E+00  0.0000E+00
    -20.681  0.3802E-01  0.1557E-01  0.1359E-12  0.8157E-02  0.0000E+00  0.0000E+00  0.0000E+00  0.0000E+00  0.0000E+00
    -20.583  0.5035E-01  0.2331E-01  0.6127E-13  0.9700E-02  0.0000E+00  0.0000E+00  0.0000E+00  0.0000E+00  0.0000E+00
    -20.485  0.8344E-01  0.2658E-01  0.4188E-13  0.1064E-01  0.0000E+00  0.0000E+00  0.0000E+00  0.0000E+00  0.0000E+00
    -20.387  0.1177E+00  0.2585E-01  0.4035E-13  0.1046E-01  0.0000E+00  0.0000E+00  0.0000E+00  0.0000E+00  0.0000E+00
    -20.289  0.1272E+00  0.2209E-01  0.3568E-13  0.9428E-02  0.0000E+00  0.0000E+00  0.0000E+00  0.0000E+00  0.0000E+00
    -20.191  0.1176E+00  0.1634E-01  0.2602E-13  0.7920E-02  0.0000E+00  0.0000E+00  0.0000E+00  0.0000E+00  0.0000E+00
    -20.093  0.1261E+00  0.1227E-01  0.1860E-13  0.7476E-02  0.0000E+00  0.0000E+00  0.0000E+00  0.0000E+00  0.0000E+00
    -19.994  0.1511E+00  0.1141E-01  0.1658E-13  0.8825E-02  0.0000E+00  0.0000E+00  0.0000E+00  0.0000E+00  0.0000E+00
    -19.896  0.1451E+00  0.1201E-01  0.1896E-13  0.1163E-01  0.0000E+00  0.0000E+00  0.0000E+00  0.0000E+00  0.0000E+00
    -19.798  0.1011E+00  0.1451E-01  0.2906E-13  0.1745E-01  0.0000E+00  0.0000E+00  0.0000E+00  0.0000E+00  0.0000E+00
    -19.700  0.6154E-01  0.1897E-01  0.4619E-13  0.2573E-01  0.0000E+00  0.0000E+00  0.0000E+00  0.0000E+00  0.0000E+00
    -19.602  0.4360E-01  0.2037E-01  0.5469E-13  0.3000E-01  0.0000E+00  0.0000E+00  0.0000E+00  0.0000E+00  0.0000E+00
    -19.504  0.3493E-01  0.1609E-01  0.4311E-13  0.2885E-01  0.0000E+00  0.0000E+00  0.0000E+00  0.0000E+00  0.0000E+00
    -19.406  0.3291E-01  0.1190E-01  0.2242E-13  0.3204E-01  0.0000E+00  0.0000E+00  0.0000E+00  0.0000E+00  0.0000E+00
    -19.307  0.4119E-01  0.1479E-01  0.8029E-14  0.4558E-01  0.0000E+00  0.0000E+00  0.0000E+00  0.0000E+00  0.0000E+00
    -19.209  0.5062E-01  0.2564E-01  0.2293E-14  0.5924E-01  0.0000E+00  0.0000E+00  0.0000E+00  0.0000E+00  0.0000E+00
    -19.111  0.4882E-01  0.3836E-01  0.7001E-15  0.6089E-01  0.0000E+00  0.0000E+00  0.0000E+00  0.0000E+00  0.0000E+00
    -19.013  0.3809E-01  0.4550E-01  0.2457E-15  0.5524E-01  0.0000E+00  0.0000E+00  0.0000E+00  0.0000E+00  0.0000E+00
    -18.915  0.2899E-01  0.4884E-01  0.7998E-16  0.5483E-01  0.0000E+00  0.0000E+00  0.0000E+00  0.0000E+00  0.0000E+00
    -18.817  0.2634E-01  0.6357E-01  0.2985E-16  0.6363E-01  0.0000E+00  0.0000E+00  0.0000E+00  0.0000E+00  0.0000E+00
    -18.719  0.3049E-01  0.1003E+00  0.2382E-16  0.7825E-01  0.0000E+00  0.0000E+00  0.0000E+00  0.0000E+00  0.0000E+00
    -18.620  0.4388E-01  0.1358E+00  0.2683E-16  0.9389E-01  0.0000E+00  0.0000E+00  0.0000E+00  0.0000E+00  0.0000E+00
    -18.522  0.6409E-01  0.1324E+00  0.2648E-16  0.1054E+00  0.0000E+00  0.0000E+00  0.0000E+00  0.0000E+00  0.0000E+00
    -18.424  0.7508E-01  0.9599E-01  0.2202E-16  0.1088E+00  0.0000E+00  0.0000E+00  0.0000E+00  0.0000E+00  0.0000E+00
    -18.326  0.6367E-01  0.6549E-01  0.1681E-16  0.9873E-01  0.0000E+00  0.0000E+00  0.0000E+00  0.0000E+00  0.0000E+00
    -18.228  0.3843E-01  0.5679E-01  0.1247E-16  0.7206E-01  0.0000E+00  0.0000E+00  0.0000E+00  0.0000E+00  0.0000E+00
    -18.130  0.1700E-01  0.5714E-01  0.9129E-17  0.4002E-01  0.0000E+00  0.0000E+00  0.0000E+00  0.0000E+00  0.0000E+00
    -18.032  0.6139E-02  0.5033E-01  0.6288E-17  0.1805E-01  0.0000E+00  0.0000E+00  0.0000E+00  0.0000E+00  0.0000E+00
    -17.934  0.2202E-02  0.3309E-01  0.3518E-17  0.7897E-02  0.0000E+00  0.0000E+00  0.0000E+00  0.0000E+00  0.0000E+00
    -17.835  0.8128E-03  0.1518E-01  0.1403E-17  0.3418E-02  0.0000E+00  0.0000E+00  0.0000E+00  0.0000E+00  0.0000E+00
    -17.737  0.2512E-03  0.4726E-02  0.3754E-18  0.1189E-02  0.0000E+00  0.0000E+00  0.0000E+00  0.0000E+00  0.0000E+00
    -17.639  0.5507E-04  0.9843E-03  0.6630E-19  0.2839E-03  0.0000E+00  0.0000E+00  0.0000E+00  0.0000E+00  0.0000E+00
    -17.541  0.8008E-05  0.1356E-03  0.7725E-20  0.4386E-04  0.0000E+00  0.0000E+00  0.0000E+00  0.0000E+00  0.0000E+00
    -17.443  0.7531E-06  0.1221E-04  0.5956E-21  0.4297E-05  0.0000E+00  0.0000E+00  0.0000E+00  0.0000E+00  0.0000E+00
    -17.345  0.4522E-07  0.7110E-06  0.3038E-22  0.2651E-06  0.0000E+00  0.0000E+00  0.0000E+00  0.0000E+00  0.0000E+00
    -17.247  0.1720E-08  0.2647E-07  0.1020E-23  0.1026E-07  0.0000E+00  0.0000E+00  0.0000E+00  0.0000E+00  0.0000E+00
    -17.148  0.4118E-10  0.6252E-09  0.2233E-25  0.2485E-09  0.0000E+00  0.0000E+00  0.0000E+00  0.0000E+00  0.0000E+00
    -17.050  0.6185E-12  0.9306E-11  0.3153E-27  0.3758E-11  0.0000E+00  0.0000E+00  0.0000E+00  0.0000E+00  0.0000E+00
    -16.952  0.6614E-14  0.8726E-13  0.2014E-28  0.3625E-13  0.0000E+00  0.0000E+00  0.0000E+00  0.0000E+00  0.0000E+00
    -16.854  0.1220E-12  0.5207E-13  0.2447E-26  0.1307E-12  0.0000E+00  0.0000E+00  0.0000E+00  0.0000E+00  0.0000E+00
    -16.756  0.1161E-10  0.4739E-11  0.2158E-24  0.1332E-10  0.0000E+00  0.0000E+00  0.0000E+00  0.0000E+00  0.0000E+00
    -16.658  0.6939E-09  0.2732E-09  0.1188E-22  0.8515E-09  0.0000E+00  0.0000E+00  0.0000E+00  0.0000E+00  0.0000E+00
    -16.560  0.2611E-07  0.9894E-08  0.4088E-21  0.3411E-07  0.0000E+00  0.0000E+00  0.0000E+00  0.0000E+00  0.0000E+00
    -16.461  0.6191E-06  0.2255E-06  0.8803E-20  0.8572E-06  0.0000E+00  0.0000E+00  0.0000E+00  0.0000E+00  0.0000E+00
    -16.363  0.9260E-05  0.3240E-05  0.1189E-18  0.1352E-04  0.0000E+00  0.0000E+00  0.0000E+00  0.0000E+00  0.0000E+00
    -16.265  0.8749E-04  0.2940E-04  0.1008E-17  0.1341E-03  0.0000E+00  0.0000E+00  0.0000E+00  0.0000E+00  0.0000E+00
    -16.167  0.5226E-03  0.1687E-03  0.5382E-17  0.8371E-03  0.0000E+00  0.0000E+00  0.0000E+00  0.0000E+00  0.0000E+00
    -16.069  0.1976E-02  0.6130E-03  0.1811E-16  0.3291E-02  0.0000E+00  0.0000E+00  0.0000E+00  0.0000E+00  0.0000E+00
    -15.971  0.4730E-02  0.1412E-02  0.3847E-16  0.8158E-02  0.0000E+00  0.0000E+00  0.0000E+00  0.0000E+00  0.0000E+00
    -15.873  0.7172E-02  0.2062E-02  0.5166E-16  0.1276E-01  0.0000E+00  0.0000E+00  0.0000E+00  0.0000E+00  0.0000E+00
    -15.775  0.6888E-02  0.1910E-02  0.4391E-16  0.1259E-01  0.0000E+00  0.0000E+00  0.0000E+00  0.0000E+00  0.0000E+00
    -15.676  0.4188E-02  0.1122E-02  0.2364E-16  0.7844E-02  0.0000E+00  0.0000E+00  0.0000E+00  0.0000E+00  0.0000E+00
    -15.578  0.1611E-02  0.4177E-03  0.8064E-17  0.3081E-02  0.0000E+00  0.0000E+00  0.0000E+00  0.0000E+00  0.0000E+00
    -15.480  0.3915E-03  0.9839E-04  0.1744E-17  0.7628E-03  0.0000E+00  0.0000E+00  0.0000E+00  0.0000E+00  0.0000E+00
    -15.382  0.6002E-04  0.1465E-04  0.2390E-18  0.1189E-03  0.0000E+00  0.0000E+00  0.0000E+00  0.0000E+00  0.0000E+00
    -15.284  0.5797E-05  0.1375E-05  0.2076E-19  0.1164E-04  0.0000E+00  0.0000E+00  0.0000E+00  0.0000E+00  0.0000E+00
    -15.186  0.3521E-06  0.8134E-07  0.1142E-20  0.7161E-06  0.0000E+00  0.0000E+00  0.0000E+00  0.0000E+00  0.0000E+00
    -15.088  0.1343E-07  0.3024E-08  0.3981E-22  0.2760E-07  0.0000E+00  0.0000E+00  0.0000E+00  0.0000E+00  0.0000E+00
    -14.989  0.3209E-09  0.7056E-10  0.8783E-24  0.6661E-09  0.0000E+00  0.0000E+00  0.0000E+00  0.0000E+00  0.0000E+00
    -14.891  0.4801E-11  0.1031E-11  0.1225E-25  0.1005E-10  0.0000E+00  0.0000E+00  0.0000E+00  0.0000E+00  0.0000E+00
    -14.793  0.4489E-13  0.9568E-14  0.1080E-27  0.9482E-13  0.0000E+00  0.0000E+00  0.0000E+00  0.0000E+00  0.0000E+00
    -14.695  0.8088E-15  0.2263E-13  0.1894E-29  0.2304E-13  0.0000E+00  0.0000E+00  0.0000E+00  0.0000E+00  0.0000E+00
    -14.597  0.6204E-13  0.2349E-11  0.1358E-27  0.2341E-11  0.0000E+00  0.0000E+00  0.0000E+00  0.0000E+00  0.0000E+00
    -14.499  0.4755E-11  0.1525E-09  0.8860E-26  0.1521E-09  0.0000E+00  0.0000E+00  0.0000E+00  0.0000E+00  0.0000E+00
    -14.401  0.2568E-09  0.6182E-08  0.3634E-24  0.6179E-08  0.0000E+00  0.0000E+00  0.0000E+00  0.0000E+00  0.0000E+00
    -14.302  0.1004E-07  0.1570E-06  0.9458E-23  0.1576E-06  0.0000E+00  0.0000E+00  0.0000E+00  0.0000E+00  0.0000E+00
    -14.204  0.2810E-06  0.2506E-05  0.1589E-21  0.2539E-05  0.0000E+00  0.0000E+00  0.0000E+00  0.0000E+00  0.0000E+00
    -14.106  0.5429E-05  0.2534E-04  0.1774E-20  0.2616E-04  0.0000E+00  0.0000E+00  0.0000E+00  0.0000E+00  0.0000E+00
    -14.008  0.6974E-04  0.1643E-03  0.1373E-19  0.1761E-03  0.0000E+00  0.0000E+00  0.0000E+00  0.0000E+00  0.0000E+00
    -13.910  0.5811E-03  0.6988E-03  0.7661E-19  0.8019E-03  0.0000E+00  0.0000E+00  0.0000E+00  0.0000E+00  0.0000E+00
    -13.812  0.3101E-02  0.2022E-02  0.3116E-18  0.2578E-02  0.0000E+00  0.0000E+00  0.0000E+00  0.0000E+00  0.0000E+00
    -13.714  0.1054E-01  0.4156E-02  0.9012E-18  0.6034E-02  0.0000E+00  0.0000E+00  0.0000E+00  0.0000E+00  0.0000E+00
    -13.615  0.2275E-01  0.6249E-02  0.1780E-17  0.1024E-01  0.0000E+00  0.0000E+00  0.0000E+00  0.0000E+00  0.0000E+00
    -13.517  0.3121E-01  0.6816E-02  0.2324E-17  0.1219E-01  0.0000E+00  0.0000E+00  0.0000E+00  0.0000E+00  0.0000E+00
    -13.419  0.2721E-01  0.5198E-02  0.1966E-17  0.9775E-02  0.0000E+00  0.0000E+00  0.0000E+00  0.0000E+00  0.0000E+00
    -13.321  0.1512E-01  0.2668E-02  0.1067E-17  0.5139E-02  0.0000E+00  0.0000E+00  0.0000E+00  0.0000E+00  0.0000E+00
    -13.223  0.5752E-02  0.9248E-03  0.3765E-18  0.1781E-02  0.0000E+00  0.0000E+00  0.0000E+00  0.0000E+00  0.0000E+00
    -13.125  0.3803E-02  0.3653E-03  0.1295E-18  0.6034E-03  0.0000E+00  0.0000E+00  0.0000E+00  0.0000E+00  0.0000E+00
    -13.027  0.1038E-01  0.6678E-03  0.2430E-18  0.8776E-03  0.0000E+00  0.0000E+00  0.0000E+00  0.0000E+00  0.0000E+00
    -12.929  0.2836E-01  0.1828E-02  0.9141E-18  0.2259E-02  0.0000E+00  0.0000E+00  0.0000E+00  0.0000E+00  0.0000E+00
    -12.830  0.6009E-01  0.4374E-02  0.2847E-17  0.5241E-02  0.0000E+00  0.0000E+00  0.0000E+00  0.0000E+00  0.0000E+00
    -12.732  0.1029E+00  0.8809E-02  0.6548E-17  0.1094E-01  0.0000E+00  0.0000E+00  0.0000E+00  0.0000E+00  0.0000E+00
    -12.634  0.1450E+00  0.1407E-01  0.1089E-16  0.2003E-01  0.0000E+00  0.0000E+00  0.0000E+00  0.0000E+00  0.0000E+00
    -12.536  0.1689E+00  0.1734E-01  0.1363E-16  0.3178E-01  0.0000E+00  0.0000E+00  0.0000E+00  0.0000E+00  0.0000E+00
    -12.438  0.1659E+00  0.1712E-01  0.1399E-16  0.4411E-01  0.0000E+00  0.0000E+00  0.0000E+00  0.0000E+00  0.0000E+00
    -12.340  0.1410E+00  0.1723E-01  0.1370E-16  0.5335E-01  0.0000E+00  0.0000E+00  0.0000E+00  0.0000E+00  0.0000E+00
    -12.242  0.1114E+00  0.2658E-01  0.1579E-16  0.5675E-01  0.0000E+00  0.0000E+00  0.0000E+00  0.0000E+00  0.0000E+00
    -12.143  0.9998E-01  0.4905E-01  0.2185E-16  0.5664E-01  0.0000E+00  0.0000E+00  0.0000E+00  0.0000E+00  0.0000E+00
    -12.045  0.1110E+00  0.7159E-01  0.2848E-16  0.5556E-01  0.0000E+00  0.0000E+00  0.0000E+00  0.0000E+00  0.0000E+00
    -11.947  0.1172E+00  0.7412E-01  0.2890E-16  0.5037E-01  0.0000E+00  0.0000E+00  0.0000E+00  0.0000E+00  0.0000E+00
    -11.849  0.9860E-01  0.5662E-01  0.2118E-16  0.3881E-01  0.0000E+00  0.0000E+00  0.0000E+00  0.0000E+00  0.0000E+00
    -11.751  0.7517E-01  0.4016E-01  0.1139E-16  0.2624E-01  0.0000E+00  0.0000E+00  0.0000E+00  0.0000E+00  0.0000E+00
    -11.653  0.7259E-01  0.3804E-01  0.5731E-17  0.2043E-01  0.0000E+00  0.0000E+00  0.0000E+00  0.0000E+00  0.0000E+00
    -11.555  0.9040E-01  0.4397E-01  0.4749E-17  0.2328E-01  0.0000E+00  0.0000E+00  0.0000E+00  0.0000E+00  0.0000E+00
    -11.456  0.1127E+00  0.4613E-01  0.5740E-17  0.2946E-01  0.0000E+00  0.0000E+00  0.0000E+00  0.0000E+00  0.0000E+00
    -11.358  0.1198E+00  0.3890E-01  0.6233E-17  0.3028E-01  0.0000E+00  0.0000E+00  0.0000E+00  0.0000E+00  0.0000E+00
    -11.260  0.1048E+00  0.2595E-01  0.5625E-17  0.2314E-01  0.0000E+00  0.0000E+00  0.0000E+00  0.0000E+00  0.0000E+00
    -11.162  0.9246E-01  0.1847E-01  0.6041E-17  0.1553E-01  0.0000E+00  0.0000E+00  0.0000E+00  0.0000E+00  0.0000E+00
    -11.064  0.1061E+00  0.2776E-01  0.1070E-16  0.1486E-01  0.0000E+00  0.0000E+00  0.0000E+00  0.0000E+00  0.0000E+00
    -10.966  0.1303E+00  0.5384E-01  0.1982E-16  0.2007E-01  0.0000E+00  0.0000E+00  0.0000E+00  0.0000E+00  0.0000E+00
    -10.868  0.1435E+00  0.7702E-01  0.2779E-16  0.2558E-01  0.0000E+00  0.0000E+00  0.0000E+00  0.0000E+00  0.0000E+00
    -10.770  0.1511E+00  0.7607E-01  0.2758E-16  0.2785E-01  0.0000E+00  0.0000E+00  0.0000E+00  0.0000E+00  0.0000E+00
    -10.671  0.1607E+00  0.5941E-01  0.1949E-16  0.2885E-01  0.0000E+00  0.0000E+00  0.0000E+00  0.0000E+00  0.0000E+00
    -10.573  0.1612E+00  0.5031E-01  0.1054E-16  0.3524E-01  0.0000E+00  0.0000E+00  0.0000E+00  0.0000E+00  0.0000E+00
    -10.475  0.1342E+00  0.5196E-01  0.2567E-16  0.5004E-01  0.0000E+00  0.0000E+00  0.0000E+00  0.0000E+00  0.0000E+00
    -10.377  0.8457E-01  0.5149E-01  0.4270E-14  0.6291E-01  0.0000E+00  0.0000E+00  0.0000E+00  0.0000E+00  0.0000E+00
    -10.279  0.4451E-01  0.4109E-01  0.5572E-12  0.5834E-01  0.0000E+00  0.0000E+00  0.0000E+00  0.0000E+00  0.0000E+00
    -10.181  0.4123E-01  0.2717E-01  0.4540E-10  0.3865E-01  0.0000E+00  0.0000E+00  0.0000E+00  0.0000E+00  0.0000E+00
    -10.083  0.8017E-01  0.2314E-01  0.2311E-08  0.2237E-01  0.0000E+00  0.0000E+00  0.0000E+00  0.0000E+00  0.0000E+00
     -9.984  0.1378E+00  0.3391E-01  0.7377E-07  0.2005E-01  0.0000E+00  0.0000E+00  0.0000E+00  0.0000E+00  0.0000E+00
     -9.886  0.1679E+00  0.5060E-01  0.1485E-05  0.2720E-01  0.0000E+00  0.0000E+00  0.0000E+00  0.0000E+00  0.0000E+00
     -9.788  0.1484E+00  0.5860E-01  0.1902E-04  0.3533E-01  0.0000E+00  0.0000E+00  0.0000E+00  0.0000E+00  0.0000E+00
     -9.690  0.1047E+00  0.5269E-01  0.1577E-03  0.4179E-01  0.0000E+00  0.0000E+00  0.0000E+00  0.0000E+00  0.0000E+00
     -9.592  0.7076E-01  0.4222E-01  0.8687E-03  0.4867E-01  0.0000E+00  0.0000E+00  0.0000E+00  0.0000E+00  0.0000E+00
     -9.494  0.5413E-01  0.3839E-01  0.3290E-02  0.5804E-01  0.0000E+00  0.0000E+00  0.0000E+00  0.0000E+00  0.0000E+00
     -9.396  0.4826E-01  0.4572E-01  0.8831E-02  0.7245E-01  0.0000E+00  0.0000E+00  0.0000E+00  0.0000E+00  0.0000E+00
     -9.297  0.5019E-01  0.6347E-01  0.1695E-01  0.9104E-01  0.0000E+00  0.0000E+00  0.0000E+00  0.0000E+00  0.0000E+00
     -9.199  0.5482E-01  0.8041E-01  0.2286E-01  0.1012E+00  0.0000E+00  0.0000E+00  0.0000E+00  0.0000E+00  0.0000E+00
     -9.101  0.5539E-01  0.8164E-01  0.2126E-01  0.9269E-01  0.0000E+00  0.0000E+00  0.0000E+00  0.0000E+00  0.0000E+00
     -9.003  0.5606E-01  0.7199E-01  0.1501E-01  0.7842E-01  0.0000E+00  0.0000E+00  0.0000E+00  0.0000E+00  0.0000E+00
     -8.905  0.6079E-01  0.6734E-01  0.1564E-01  0.7200E-01  0.0000E+00  0.0000E+00  0.0000E+00  0.0000E+00  0.0000E+00