  32  32   0   0
  0.3830779E+02  0.9977512E-09  0.9977512E-09  0.1421877E-08  0.5000000E-15
  1.000000000000000E-004
  CAR 
 unknown system                          
      5.23686881    -26.42319947  301     -2.09470187      1.00000000
    -26.423  0.0000E+00  0.0000E+00
    -26.318  0.0000E+00  0.0000E+00
    -26.212  0.0000E+00  0.0000E+00
    -26.107  0.0000E+00  0.0000E+00
    -26.001  0.0000E+00  0.0000E+00
    -25.896  0.0000E+00  0.0000E+00
    -25.790  0.0000E+00  0.0000E+00
    -25.684  0.0000E+00  0.0000E+00
    -25.579  0.2367E-14  0.2498E-15
    -25.473  0.8943E-12  0.9463E-13
    -25.368  0.1939E-09  0.2055E-10
    -25.262  0.2432E-07  0.2587E-08
    -25.157  0.1768E-05  0.1891E-06
    -25.051  0.7460E-04  0.8062E-05
    -24.946  0.1831E-02  0.2013E-03
    -24.840  0.2620E-01  0.2966E-02
    -24.735  0.2190E+00  0.2608E-01
    -24.629  0.1072E+01  0.1392E+00
    -24.524  0.3075E+01  0.4637E+00
    -24.418  0.5183E+01  0.1011E+01
    -24.313  0.5134E+01  0.1553E+01
    -24.207  0.2988E+01  0.1868E+01
    -24.101  0.1021E+01  0.1976E+01
    -23.996  0.2048E+00  0.1997E+01
    -23.890  0.2403E-01  0.2000E+01
    -23.785  0.1653E-02  0.2000E+01
    -23.679  0.2627E-03  0.2000E+01
    -23.574  0.4078E-02  0.2000E+01
    -23.468  0.4947E-01  0.2006E+01
    -23.363  0.3528E+00  0.2043E+01
    -23.257  0.1483E+01  0.2199E+01
    -23.152  0.3680E+01  0.2588E+01
    -23.046  0.5401E+01  0.3158E+01
    -22.941  0.4690E+01  0.3653E+01
    -22.835  0.2411E+01  0.3907E+01
    -22.730  0.7328E+00  0.3985E+01
    -22.624  0.1316E+00  0.3998E+01
    -22.518  0.1427E-01  0.4000E+01
    -22.413  0.7063E-02  0.4001E+01
    -22.307  0.6557E-01  0.4008E+01
    -22.202  0.4158E+00  0.4051E+01
    -22.096  0.1595E+01  0.4220E+01
    -21.991  0.3747E+01  0.4615E+01
    -21.885  0.5583E+01  0.5204E+01
    -21.780  0.5967E+01  0.5834E+01
    -21.674  0.5984E+01  0.6466E+01
    -21.569  0.6204E+01  0.7120E+01
    -21.463  0.5387E+01  0.7689E+01
    -21.358  0.4163E+01  0.8128E+01
    -21.252  0.4309E+01  0.8583E+01
    -21.147  0.5069E+01  0.9118E+01
    -21.041  0.4645E+01  0.9608E+01
    -20.935  0.3510E+01  0.9979E+01
    -20.830  0.3712E+01  0.1037E+02
    -20.724  0.5581E+01  0.1096E+02
    -20.619  0.7235E+01  0.1172E+02
    -20.513  0.7550E+01  0.1252E+02
    -20.408  0.6692E+01  0.1323E+02
    -20.302  0.4938E+01  0.1375E+02
    -20.197  0.3692E+01  0.1414E+02
    -20.091  0.4274E+01  0.1459E+02
    -19.986  0.5311E+01  0.1515E+02
    -19.880  0.4712E+01  0.1565E+02
    -19.775  0.3217E+01  0.1598E+02
    -19.669  0.3212E+01  0.1632E+02
    -19.564  0.5231E+01  0.1688E+02
    -19.458  0.7417E+01  0.1766E+02
    -19.352  0.8020E+01  0.1850E+02
    -19.247  0.7347E+01  0.1928E+02
    -19.141  0.6919E+01  0.2001E+02
    -19.036  0.7533E+01  0.2081E+02
    -18.930  0.8328E+01  0.2168E+02
    -18.825  0.8124E+01  0.2254E+02
    -18.719  0.6780E+01  0.2326E+02
    -18.614  0.4966E+01  0.2378E+02
    -18.508  0.4117E+01  0.2422E+02
    -18.403  0.4891E+01  0.2473E+02
    -18.297  0.5444E+01  0.2531E+02
    -18.192  0.4070E+01  0.2574E+02
    -18.086  0.1880E+01  0.2593E+02
    -17.981  0.5257E+00  0.2599E+02
    -17.875  0.8827E-01  0.2600E+02
    -17.769  0.8835E-02  0.2600E+02
    -17.664  0.5238E-03  0.2600E+02
    -17.558  0.1916E-04  0.2600E+02
    -17.453  0.3724E-04  0.2600E+02
    -17.347  0.9283E-03  0.2600E+02
    -17.242  0.1380E-01  0.2600E+02
    -17.136  0.1218E+00  0.2601E+02
    -17.031  0.6455E+00  0.2608E+02
    -16.925  0.2077E+01  0.2630E+02
    -16.820  0.4117E+01  0.2674E+02
    -16.714  0.5113E+01  0.2728E+02
    -16.609  0.4033E+01  0.2770E+02
    -16.503  0.2031E+01  0.2792E+02
    -16.398  0.6520E+00  0.2798E+02
    -16.292  0.1494E+00  0.2800E+02
    -16.186  0.1394E+00  0.2802E+02
    -16.081  0.4883E+00  0.2807E+02
    -15.975  0.1195E+01  0.2819E+02
    -15.870  0.1909E+01  0.2839E+02
    -15.764  0.2198E+01  0.2863E+02
    -15.659  0.2228E+01  0.2886E+02
    -15.553  0.2455E+01  0.2912E+02
    -15.448  0.2804E+01  0.2942E+02
    -15.342  0.2667E+01  0.2970E+02
    -15.237  0.1808E+01  0.2989E+02
    -15.131  0.8603E+00  0.2998E+02
    -15.026  0.6401E+00  0.3005E+02
    -14.920  0.1709E+01  0.3023E+02
    -14.815  0.3998E+01  0.3065E+02
    -14.709  0.5859E+01  0.3127E+02
    -14.603  0.5711E+01  0.3187E+02
    -14.498  0.4613E+01  0.3236E+02
    -14.392  0.4238E+01  0.3280E+02
    -14.287  0.4413E+01  0.3327E+02
    -14.181  0.4267E+01  0.3372E+02
    -14.076  0.3977E+01  0.3414E+02
    -13.970  0.4083E+01  0.3457E+02
    -13.865  0.4209E+01  0.3502E+02
    -13.759  0.4326E+01  0.3547E+02
    -13.654  0.5209E+01  0.3602E+02
    -13.548  0.6473E+01  0.3670E+02
    -13.443  0.6458E+01  0.3739E+02
    -13.337  0.5192E+01  0.3793E+02
    -13.232  0.4989E+01  0.3846E+02
    -13.126  0.6491E+01  0.3915E+02
    -13.020  0.7650E+01  0.3995E+02
    -12.915  0.7238E+01  0.4072E+02
    -12.809  0.5765E+01  0.4132E+02
    -12.704  0.3985E+01  0.4175E+02
    -12.598  0.2837E+01  0.4204E+02
    -12.493  0.3241E+01  0.4239E+02
    -12.387  0.4747E+01  0.4289E+02
    -12.282  0.5693E+01  0.4349E+02
    -12.176  0.5541E+01  0.4407E+02
    -12.071  0.5550E+01  0.4466E+02
    -11.965  0.6558E+01  0.4535E+02
    -11.860  0.7965E+01  0.4619E+02
    -11.754  0.8894E+01  0.4713E+02
    -11.649  0.9219E+01  0.4810E+02
    -11.543  0.9275E+01  0.4908E+02
    -11.437  0.8793E+01  0.5001E+02
    -11.332  0.7641E+01  0.5082E+02
    -11.226  0.6846E+01  0.5154E+02
    -11.121  0.7046E+01  0.5228E+02
    -11.015  0.7601E+01  0.5308E+02
    -10.910  0.8334E+01  0.5396E+02
    -10.804  0.9857E+01  0.5500E+02
    -10.699  0.1198E+02  0.5627E+02
    -10.593  0.1329E+02  0.5767E+02
    -10.488  0.1207E+02  0.5895E+02
    -10.382  0.9096E+01  0.5991E+02
    -10.277  0.7242E+01  0.6067E+02
    -10.171  0.6936E+01  0.6140E+02
    -10.065  0.6453E+01  0.6208E+02
     -9.960  0.5622E+01  0.6268E+02
     -9.854  0.5499E+01  0.6326E+02
     -9.749  0.6399E+01  0.6393E+02
     -9.643  0.7897E+01  0.6476E+02
     -9.538  0.9482E+01  0.6577E+02
     -9.432  0.1077E+02  0.6690E+02
     -9.327  0.1125E+02  0.6809E+02
     -9.221  0.1067E+02  0.6922E+02
     -9.116  0.9488E+01  0.7022E+02
     -9.010  0.8589E+01  0.7112E+02
     -8.905  0.9149E+01  0.7209E+02
     -8.799  0.1182E+02  0.7334E+02
     -8.694  0.1523E+02  0.7494E+02
     -8.588  0.1679E+02  0.7672E+02
     -8.482  0.1569E+02  0.7837E+02
     -8.377  0.1370E+02  0.7982E+02
     -8.271  0.1292E+02  0.8118E+02
     -8.166  0.1326E+02  0.8258E+02
     -8.060  0.1302E+02  0.8395E+02
     -7.955  0.1166E+02  0.8518E+02
     -7.849  0.1033E+02  0.8628E+02
     -7.744  0.9536E+01  0.8728E+02
     -7.638  0.9245E+01  0.8826E+02
     -7.533  0.9950E+01  0.8931E+02
     -7.427  0.1124E+02  0.9049E+02
     -7.322  0.1185E+02  0.9174E+02
     -7.216  0.1169E+02  0.9298E+02
     -7.111  0.1198E+02  0.9424E+02
     -7.005  0.1290E+02  0.9560E+02
     -6.899  0.1316E+02  0.9699E+02
     -6.794  0.1230E+02  0.9829E+02
     -6.688  0.1099E+02  0.9945E+02
     -6.583  0.9633E+01  0.1005E+03
     -6.477  0.8828E+01  0.1014E+03
     -6.372  0.8879E+01  0.1023E+03
     -6.266  0.9341E+01  0.1033E+03
     -6.161  0.9817E+01  0.1044E+03
     -6.055  0.9602E+01  0.1054E+03
     -5.950  0.8259E+01  0.1062E+03
     -5.844  0.7252E+01  0.1070E+03
     -5.739  0.8376E+01  0.1079E+03
     -5.633  0.1098E+02  0.1090E+03
     -5.528  0.1257E+02  0.1104E+03
     -5.422  0.1133E+02  0.1116E+03
     -5.316  0.8455E+01  0.1125E+03
     -5.211  0.7161E+01  0.1132E+03
     -5.105  0.8332E+01  0.1141E+03
     -5.000  0.9379E+01  0.1151E+03
     -4.894  0.8150E+01  0.1159E+03
     -4.789  0.5983E+01  0.1166E+03
     -4.683  0.4922E+01  0.1171E+03
     -4.578  0.4614E+01  0.1176E+03
     -4.472  0.4292E+01  0.1180E+03
     -4.367  0.4516E+01  0.1185E+03
     -4.261  0.5059E+01  0.1190E+03
     -4.156  0.4555E+01  0.1195E+03
     -4.050  0.2900E+01  0.1198E+03
     -3.945  0.1450E+01  0.1200E+03
     -3.839  0.1351E+01  0.1201E+03
     -3.733  0.2672E+01  0.1204E+03
     -3.628  0.4380E+01  0.1209E+03
     -3.522  0.5530E+01  0.1215E+03
     -3.417  0.6394E+01  0.1221E+03
     -3.311  0.7138E+01  0.1229E+03
     -3.206  0.7313E+01  0.1237E+03
     -3.100  0.6917E+01  0.1244E+03
     -2.995  0.6155E+01  0.1250E+03
     -2.889  0.4903E+01  0.1256E+03
     -2.784  0.3371E+01  0.1259E+03
     -2.678  0.2643E+01  0.1262E+03
     -2.573  0.3156E+01  0.1265E+03
     -2.467  0.3984E+01  0.1269E+03
     -2.362  0.4144E+01  0.1274E+03
     -2.256  0.3282E+01  0.1277E+03
     -2.150  0.1921E+01  0.1279E+03
     -2.045  0.1258E+01  0.1281E+03
     -1.939  0.2057E+01  0.1283E+03
     -1.834  0.3880E+01  0.1287E+03
     -1.728  0.5059E+01  0.1292E+03
     -1.623  0.4242E+01  0.1297E+03
     -1.517  0.2236E+01  0.1299E+03
     -1.412  0.7707E+00  0.1300E+03
     -1.306  0.4439E+00  0.1300E+03
     -1.201  0.1195E+01  0.1302E+03
     -1.095  0.2902E+01  0.1305E+03
     -0.990  0.4600E+01  0.1310E+03
     -0.884  0.4774E+01  0.1315E+03
     -0.779  0.3246E+01  0.1318E+03
     -0.673  0.1426E+01  0.1320E+03
     -0.567  0.3958E+00  0.1320E+03
     -0.462  0.6839E-01  0.1320E+03
     -0.356  0.1449E-01  0.1320E+03
     -0.251  0.7093E-01  0.1320E+03
     -0.145  0.4063E+00  0.1321E+03
     -0.040  0.1438E+01  0.1322E+03
      0.066  0.3184E+01  0.1325E+03
      0.171  0.4544E+01  0.1330E+03
      0.277  0.4366E+01  0.1335E+03
      0.382  0.2995E+01  0.1338E+03
      0.488  0.1737E+01  0.1340E+03
      0.593  0.1655E+01  0.1342E+03
      0.699  0.2859E+01  0.1345E+03
      0.804  0.4463E+01  0.1349E+03
      0.910  0.5859E+01  0.1355E+03
      1.016  0.7304E+01  0.1363E+03
      1.121  0.8547E+01  0.1372E+03
      1.227  0.9010E+01  0.1382E+03
      1.332  0.9052E+01  0.1391E+03
      1.438  0.8887E+01  0.1401E+03
      1.543  0.8405E+01  0.1409E+03
      1.649  0.8708E+01  0.1419E+03
      1.754  0.1050E+02  0.1430E+03
      1.860  0.1237E+02  0.1443E+03
      1.965  0.1305E+02  0.1457E+03
      2.071  0.1329E+02  0.1471E+03
      2.176  0.1424E+02  0.1486E+03
      2.282  0.1565E+02  0.1502E+03
      2.387  0.1645E+02  0.1520E+03
      2.493  0.1600E+02  0.1536E+03
      2.599  0.1489E+02  0.1552E+03
      2.704  0.1452E+02  0.1567E+03
      2.810  0.1540E+02  0.1584E+03
      2.915  0.1612E+02  0.1601E+03
      3.021  0.1490E+02  0.1616E+03
      3.126  0.1140E+02  0.1628E+03
      3.232  0.6830E+01  0.1636E+03
      3.337  0.2996E+01  0.1639E+03
      3.443  0.9082E+00  0.1640E+03
      3.548  0.1841E+00  0.1640E+03
      3.654  0.2464E-01  0.1640E+03
      3.759  0.2158E-02  0.1640E+03
      3.865  0.1219E-03  0.1640E+03
      3.970  0.4347E-05  0.1640E+03
      4.076  0.9537E-07  0.1640E+03
      4.182  0.1260E-08  0.1640E+03
      4.287  0.9871E-11  0.1640E+03
      4.393  0.4515E-13  0.1640E+03
      4.498  0.1753E-15  0.1640E+03
      4.604  0.0000E+00  0.1640E+03
      4.709  0.0000E+00  0.1640E+03
      4.815  0.0000E+00  0.1640E+03
      4.920  0.0000E+00  0.1640E+03
      5.026  0.0000E+00  0.1640E+03
      5.131  0.0000E+00  0.1640E+03
      5.237  0.0000E+00  0.1640E+03
