   3   3   1   0
  0.5154329E+02  0.3136285E-09  0.3136285E-09  0.1815230E-08  0.5000000E-15
  1.000000000000000E-004
  CAR 
 test                                    
      8.21299614    -17.68344568 1000     -1.19915351      1.00000000
    -17.683  0.0000E+00  0.0000E+00  0.0000E+00  0.0000E+00
    -17.658  0.0000E+00  0.0000E+00  0.0000E+00  0.0000E+00
    -17.632  0.0000E+00  0.0000E+00  0.0000E+00  0.0000E+00
    -17.606  0.0000E+00  0.0000E+00  0.0000E+00  0.0000E+00
    -17.580  0.0000E+00  0.0000E+00  0.0000E+00  0.0000E+00
    -17.554  0.0000E+00  0.0000E+00  0.0000E+00  0.0000E+00
    -17.528  0.0000E+00  0.0000E+00  0.0000E+00  0.0000E+00
    -17.502  0.0000E+00  0.0000E+00  0.0000E+00  0.0000E+00
    -17.476  0.0000E+00  0.0000E+00  0.0000E+00  0.0000E+00
    -17.450  0.0000E+00  0.0000E+00  0.0000E+00  0.0000E+00
    -17.424  0.0000E+00  0.0000E+00  0.0000E+00  0.0000E+00
    -17.398  0.0000E+00  0.0000E+00  0.0000E+00  0.0000E+00
    -17.372  0.0000E+00  0.0000E+00  0.0000E+00  0.0000E+00
    -17.346  0.0000E+00  0.0000E+00  0.0000E+00  0.0000E+00
    -17.321  0.0000E+00  0.0000E+00  0.0000E+00  0.0000E+00
    -17.295  0.0000E+00  0.0000E+00  0.0000E+00  0.0000E+00
    -17.269  0.0000E+00  0.0000E+00  0.0000E+00  0.0000E+00
    -17.243  0.0000E+00  0.0000E+00  0.0000E+00  0.0000E+00
    -17.217  0.0000E+00  0.0000E+00  0.0000E+00  0.0000E+00
    -17.191  0.0000E+00  0.0000E+00  0.0000E+00  0.0000E+00
    -17.165  0.0000E+00  0.0000E+00  0.0000E+00  0.0000E+00
    -17.139  0.0000E+00  0.0000E+00  0.0000E+00  0.0000E+00
    -17.113  0.0000E+00  0.0000E+00  0.0000E+00  0.0000E+00
    -17.087  0.0000E+00  0.2974E-16  0.0000E+00  0.7710E-18
    -17.061  0.7436E-16  0.5354E-15  0.1927E-17  0.1465E-16
    -17.035  0.1368E-14  0.9250E-14  0.3739E-16  0.2544E-15
    -17.009  0.2250E-13  0.1397E-12  0.6206E-15  0.3877E-14
    -16.984  0.3257E-12  0.1848E-11  0.9064E-14  0.5179E-13
    -16.958  0.4127E-11  0.2140E-10  0.1161E-12  0.6064E-12
    -16.932  0.4577E-10  0.2168E-09  0.1303E-11  0.6226E-11
    -16.906  0.4443E-09  0.1923E-08  0.1282E-10  0.5607E-10
    -16.880  0.3775E-08  0.1493E-07  0.1107E-09  0.4430E-09
    -16.854  0.2808E-07  0.1014E-06  0.8385E-09  0.3073E-08
    -16.828  0.1828E-06  0.6036E-06  0.5577E-08  0.1872E-07
    -16.802  0.1042E-05  0.3145E-05  0.3259E-07  0.1003E-06
    -16.776  0.5203E-05  0.1435E-04  0.1675E-06  0.4724E-06
    -16.750  0.2275E-04  0.5742E-04  0.7573E-06  0.1961E-05
    -16.724  0.8722E-04  0.2014E-03  0.3018E-05  0.7182E-05
    -16.698  0.2933E-03  0.6207E-03  0.1062E-04  0.2327E-04
    -16.672  0.8669E-03  0.1685E-02  0.3309E-04  0.6694E-04
    -16.647  0.2258E-02  0.4043E-02  0.9164E-04  0.1718E-03
    -16.621  0.5211E-02  0.8644E-02  0.2267E-03  0.3958E-03
    -16.595  0.1074E-01  0.1664E-01  0.5050E-03  0.8271E-03
    -16.569  0.2000E-01  0.2928E-01  0.1023E-02  0.1586E-02
    -16.543  0.3422E-01  0.4795E-01  0.1910E-02  0.2829E-02
    -16.517  0.5481E-01  0.7420E-01  0.3331E-02  0.4752E-02
    -16.491  0.8331E-01  0.1091E+00  0.5491E-02  0.7582E-02
    -16.465  0.1205E+00  0.1516E+00  0.8614E-02  0.1151E-01
    -16.439  0.1641E+00  0.1960E+00  0.1287E-01  0.1659E-01
    -16.413  0.2071E+00  0.2316E+00  0.1824E-01  0.2260E-01
    -16.387  0.2380E+00  0.2470E+00  0.2441E-01  0.2900E-01
    -16.361  0.2462E+00  0.2364E+00  0.3079E-01  0.3513E-01
    -16.335  0.2286E+00  0.2053E+00  0.3672E-01  0.4045E-01
    -16.310  0.1936E+00  0.1687E+00  0.4174E-01  0.4482E-01
    -16.284  0.1580E+00  0.1447E+00  0.4583E-01  0.4857E-01
    -16.258  0.1392E+00  0.1462E+00  0.4944E-01  0.5236E-01
    -16.232  0.1475E+00  0.1750E+00  0.5326E-01  0.5690E-01
    -16.206  0.1819E+00  0.2225E+00  0.5798E-01  0.6267E-01
    -16.180  0.2318E+00  0.2742E+00  0.6399E-01  0.6977E-01
    -16.154  0.2824E+00  0.3168E+00  0.7131E-01  0.7799E-01
    -16.128  0.3217E+00  0.3428E+00  0.7965E-01  0.8687E-01
    -16.102  0.3438E+00  0.3499E+00  0.8856E-01  0.9594E-01
    -16.076  0.3471E+00  0.3375E+00  0.9756E-01  0.1047E+00
    -16.050  0.3316E+00  0.3056E+00  0.1062E+00  0.1126E+00
    -16.024  0.2971E+00  0.2562E+00  0.1139E+00  0.1193E+00
    -15.998  0.2457E+00  0.1959E+00  0.1202E+00  0.1243E+00
    -15.973  0.1851E+00  0.1358E+00  0.1250E+00  0.1279E+00
    -15.947  0.1262E+00  0.8752E-01  0.1283E+00  0.1301E+00
    -15.921  0.8044E-01  0.5996E-01  0.1304E+00  0.1317E+00
    -15.895  0.5585E-01  0.5922E-01  0.1318E+00  0.1332E+00
    -15.869  0.5794E-01  0.8969E-01  0.1333E+00  0.1355E+00
    -15.843  0.9083E-01  0.1532E+00  0.1357E+00  0.1395E+00
    -15.817  0.1562E+00  0.2447E+00  0.1397E+00  0.1459E+00
    -15.791  0.2485E+00  0.3473E+00  0.1462E+00  0.1549E+00
    -15.765  0.3503E+00  0.4344E+00  0.1553E+00  0.1661E+00
    -15.739  0.4342E+00  0.4802E+00  0.1665E+00  0.1786E+00
    -15.713  0.4739E+00  0.4744E+00  0.1788E+00  0.1909E+00
    -15.687  0.4596E+00  0.4312E+00  0.1907E+00  0.2020E+00
    -15.662  0.4053E+00  0.3820E+00  0.2012E+00  0.2119E+00
    -15.636  0.3432E+00  0.3593E+00  0.2101E+00  0.2213E+00
    -15.610  0.3065E+00  0.3780E+00  0.2181E+00  0.2311E+00
    -15.584  0.3134E+00  0.4277E+00  0.2262E+00  0.2421E+00
    -15.558  0.3590E+00  0.4794E+00  0.2355E+00  0.2546E+00
    -15.532  0.4198E+00  0.5020E+00  0.2464E+00  0.2676E+00
    -15.506  0.4658E+00  0.4805E+00  0.2584E+00  0.2800E+00
    -15.480  0.4745E+00  0.4247E+00  0.2707E+00  0.2910E+00
    -15.454  0.4418E+00  0.3629E+00  0.2822E+00  0.3005E+00
    -15.428  0.3834E+00  0.3254E+00  0.2921E+00  0.3089E+00
    -15.402  0.3273E+00  0.3302E+00  0.3006E+00  0.3174E+00
    -15.376  0.3013E+00  0.3774E+00  0.3084E+00  0.3272E+00
    -15.350  0.3218E+00  0.4546E+00  0.3168E+00  0.3390E+00
    -15.325  0.3894E+00  0.5446E+00  0.3269E+00  0.3531E+00
    -15.299  0.4910E+00  0.6320E+00  0.3396E+00  0.3695E+00
    -15.273  0.6066E+00  0.7048E+00  0.3553E+00  0.3878E+00
    -15.247  0.7150E+00  0.7553E+00  0.3739E+00  0.4074E+00
    -15.221  0.7984E+00  0.7797E+00  0.3945E+00  0.4276E+00
    -15.195  0.8438E+00  0.7776E+00  0.4164E+00  0.4477E+00
    -15.169  0.8447E+00  0.7525E+00  0.4383E+00  0.4672E+00
    -15.143  0.8017E+00  0.7126E+00  0.4591E+00  0.4857E+00
    -15.117  0.7258E+00  0.6716E+00  0.4779E+00  0.5031E+00
    -15.091  0.6393E+00  0.6429E+00  0.4945E+00  0.5198E+00
    -15.065  0.5705E+00  0.6313E+00  0.5093E+00  0.5362E+00
    -15.039  0.5408E+00  0.6298E+00  0.5233E+00  0.5525E+00
    -15.013  0.5528E+00  0.6269E+00  0.5376E+00  0.5687E+00
    -14.988  0.5896E+00  0.6173E+00  0.5529E+00  0.5847E+00
    -14.962  0.6263E+00  0.6043E+00  0.5691E+00  0.6004E+00
    -14.936  0.6453E+00  0.5908E+00  0.5859E+00  0.6157E+00
    -14.910  0.6422E+00  0.5712E+00  0.6025E+00  0.6305E+00
    -14.884  0.6200E+00  0.5331E+00  0.6186E+00  0.6443E+00
    -14.858  0.5802E+00  0.4698E+00  0.6336E+00  0.6565E+00
    -14.832  0.5220E+00  0.3921E+00  0.6472E+00  0.6667E+00
    -14.806  0.4485E+00  0.3283E+00  0.6588E+00  0.6752E+00
    -14.780  0.3749E+00  0.3136E+00  0.6685E+00  0.6833E+00
    -14.754  0.3275E+00  0.3748E+00  0.6770E+00  0.6930E+00
    -14.728  0.3361E+00  0.5175E+00  0.6857E+00  0.7065E+00
    -14.702  0.4197E+00  0.7201E+00  0.6966E+00  0.7251E+00
    -14.676  0.5761E+00  0.9391E+00  0.7115E+00  0.7495E+00
    -14.651  0.7785E+00  0.1124E+01  0.7317E+00  0.7786E+00
    -14.625  0.9841E+00  0.1235E+01  0.7572E+00  0.8106E+00
    -14.599  0.1150E+01  0.1260E+01  0.7870E+00  0.8433E+00
    -14.573  0.1245E+01  0.1207E+01  0.8193E+00  0.8746E+00
    -14.547  0.1260E+01  0.1098E+01  0.8519E+00  0.9030E+00
    -14.521  0.1199E+01  0.9588E+00  0.8830E+00  0.9279E+00
    -14.495  0.1080E+01  0.8120E+00  0.9110E+00  0.9489E+00
    -14.469  0.9255E+00  0.6765E+00  0.9350E+00  0.9665E+00
    -14.443  0.7653E+00  0.5664E+00  0.9549E+00  0.9811E+00
    -14.417  0.6261E+00  0.4905E+00  0.9711E+00  0.9939E+00
    -14.391  0.5253E+00  0.4549E+00  0.9847E+00  0.1006E+01
    -14.365  0.4687E+00  0.4645E+00  0.9968E+00  0.1018E+01
    -14.339  0.4553E+00  0.5217E+00  0.1009E+01  0.1031E+01
    -14.314  0.4831E+00  0.6226E+00  0.1021E+01  0.1047E+01
    -14.288  0.5502E+00  0.7552E+00  0.1035E+01  0.1067E+01
    -14.262  0.6523E+00  0.9034E+00  0.1052E+01  0.1090E+01
    -14.236  0.7814E+00  0.1054E+01  0.1073E+01  0.1118E+01
    -14.210  0.9271E+00  0.1200E+01  0.1097E+01  0.1149E+01
    -14.184  0.1081E+01  0.1336E+01  0.1125E+01  0.1183E+01
    -14.158  0.1236E+01  0.1455E+01  0.1157E+01  0.1221E+01
    -14.132  0.1385E+01  0.1544E+01  0.1193E+01  0.1261E+01
    -14.106  0.1513E+01  0.1593E+01  0.1232E+01  0.1302E+01
    -14.080  0.1603E+01  0.1594E+01  0.1273E+01  0.1344E+01
    -14.054  0.1640E+01  0.1556E+01  0.1316E+01  0.1384E+01
    -14.028  0.1618E+01  0.1502E+01  0.1358E+01  0.1423E+01
    -14.002  0.1549E+01  0.1467E+01  0.1398E+01  0.1461E+01
    -13.977  0.1467E+01  0.1481E+01  0.1436E+01  0.1499E+01
    -13.951  0.1415E+01  0.1549E+01  0.1473E+01  0.1540E+01
    -13.925  0.1430E+01  0.1644E+01  0.1510E+01  0.1582E+01
    -13.899  0.1513E+01  0.1715E+01  0.1549E+01  0.1627E+01
    -13.873  0.1627E+01  0.1727E+01  0.1591E+01  0.1671E+01
    -13.847  0.1710E+01  0.1673E+01  0.1636E+01  0.1715E+01
    -13.821  0.1722E+01  0.1579E+01  0.1680E+01  0.1756E+01
    -13.795  0.1661E+01  0.1475E+01  0.1723E+01  0.1794E+01
    -13.769  0.1560E+01  0.1375E+01  0.1764E+01  0.1830E+01
    -13.743  0.1455E+01  0.1277E+01  0.1801E+01  0.1863E+01
    -13.717  0.1361E+01  0.1167E+01  0.1837E+01  0.1893E+01
    -13.691  0.1267E+01  0.1035E+01  0.1869E+01  0.1920E+01
    -13.665  0.1156E+01  0.8809E+00  0.1899E+01  0.1943E+01
    -13.640  0.1016E+01  0.7120E+00  0.1926E+01  0.1961E+01
    -13.614  0.8510E+00  0.5420E+00  0.1948E+01  0.1975E+01
    -13.588  0.6731E+00  0.3856E+00  0.1965E+01  0.1985E+01
    -13.562  0.5002E+00  0.2546E+00  0.1978E+01  0.1992E+01
    -13.536  0.3474E+00  0.1548E+00  0.1987E+01  0.1996E+01
    -13.510  0.2241E+00  0.8602E-01  0.1993E+01  0.1998E+01
    -13.484  0.1333E+00  0.4336E-01  0.1997E+01  0.1999E+01
    -13.458  0.7256E-01  0.1969E-01  0.1998E+01  0.2000E+01
    -13.432  0.3581E-01  0.7998E-02  0.1999E+01  0.2000E+01
    -13.406  0.1590E-01  0.2891E-02  0.2000E+01  0.2000E+01
    -13.380  0.6312E-02  0.9262E-03  0.2000E+01  0.2000E+01
    -13.354  0.2227E-02  0.2620E-03  0.2000E+01  0.2000E+01
    -13.328  0.6950E-03  0.6530E-04  0.2000E+01  0.2000E+01
    -13.303  0.1914E-03  0.1431E-04  0.2000E+01  0.2000E+01
    -13.277  0.4639E-04  0.2753E-05  0.2000E+01  0.2000E+01
    -13.251  0.9879E-05  0.4648E-06  0.2000E+01  0.2000E+01
    -13.225  0.1847E-05  0.6878E-07  0.2000E+01  0.2000E+01
    -13.199  0.3027E-06  0.8920E-08  0.2000E+01  0.2000E+01
    -13.173  0.4348E-07  0.1013E-08  0.2000E+01  0.2000E+01
    -13.147  0.5472E-08  0.1008E-09  0.2000E+01  0.2000E+01
    -13.121  0.6031E-09  0.8780E-11  0.2000E+01  0.2000E+01
    -13.095  0.5821E-10  0.6693E-12  0.2000E+01  0.2000E+01
    -13.069  0.4918E-11  0.4461E-13  0.2000E+01  0.2000E+01
    -13.043  0.3638E-12  0.2617E-14  0.2000E+01  0.2000E+01
    -13.017  0.2356E-13  0.1190E-15  0.2000E+01  0.2000E+01
    -12.991  0.1428E-14  0.0000E+00  0.2000E+01  0.2000E+01
    -12.966  0.0000E+00  0.0000E+00  0.2000E+01  0.2000E+01
    -12.940  0.0000E+00  0.0000E+00  0.2000E+01  0.2000E+01
    -12.914  0.0000E+00  0.0000E+00  0.2000E+01  0.2000E+01
    -12.888  0.0000E+00  0.0000E+00  0.2000E+01  0.2000E+01
    -12.862  0.0000E+00  0.0000E+00  0.2000E+01  0.2000E+01
    -12.836  0.0000E+00  0.0000E+00  0.2000E+01  0.2000E+01
    -12.810  0.0000E+00  0.0000E+00  0.2000E+01  0.2000E+01
    -12.784  0.0000E+00  0.0000E+00  0.2000E+01  0.2000E+01
    -12.758  0.0000E+00  0.0000E+00  0.2000E+01  0.2000E+01
    -12.732  0.0000E+00  0.0000E+00  0.2000E+01  0.2000E+01
    -12.706  0.0000E+00  0.0000E+00  0.2000E+01  0.2000E+01
    -12.680  0.0000E+00  0.0000E+00  0.2000E+01  0.2000E+01
    -12.655  0.0000E+00  0.0000E+00  0.2000E+01  0.2000E+01
    -12.629  0.0000E+00  0.0000E+00  0.2000E+01  0.2000E+01
    -12.603  0.0000E+00  0.0000E+00  0.2000E+01  0.2000E+01
    -12.577  0.0000E+00  0.0000E+00  0.2000E+01  0.2000E+01
    -12.551  0.0000E+00  0.0000E+00  0.2000E+01  0.2000E+01
    -12.525  0.0000E+00  0.0000E+00  0.2000E+01  0.2000E+01
    -12.499  0.0000E+00  0.0000E+00  0.2000E+01  0.2000E+01
    -12.473  0.0000E+00  0.0000E+00  0.2000E+01  0.2000E+01
    -12.447  0.0000E+00  0.0000E+00  0.2000E+01  0.2000E+01
    -12.421  0.0000E+00  0.0000E+00  0.2000E+01  0.2000E+01
    -12.395  0.0000E+00  0.0000E+00  0.2000E+01  0.2000E+01
    -12.369  0.0000E+00  0.0000E+00  0.2000E+01  0.2000E+01
    -12.343  0.0000E+00  0.0000E+00  0.2000E+01  0.2000E+01
    -12.318  0.0000E+00  0.0000E+00  0.2000E+01  0.2000E+01
    -12.292  0.0000E+00  0.0000E+00  0.2000E+01  0.2000E+01
    -12.266  0.0000E+00  0.0000E+00  0.2000E+01  0.2000E+01
    -12.240  0.0000E+00  0.0000E+00  0.2000E+01  0.2000E+01
    -12.214  0.0000E+00  0.0000E+00  0.2000E+01  0.2000E+01
    -12.188  0.0000E+00  0.0000E+00  0.2000E+01  0.2000E+01
    -12.162  0.0000E+00  0.0000E+00  0.2000E+01  0.2000E+01
    -12.136  0.0000E+00  0.0000E+00  0.2000E+01  0.2000E+01
    -12.110  0.0000E+00  0.0000E+00  0.2000E+01  0.2000E+01
    -12.084  0.0000E+00  0.0000E+00  0.2000E+01  0.2000E+01
    -12.058  0.0000E+00  0.0000E+00  0.2000E+01  0.2000E+01
    -12.032  0.0000E+00  0.0000E+00  0.2000E+01  0.2000E+01
    -12.006  0.0000E+00  0.0000E+00  0.2000E+01  0.2000E+01
    -11.981  0.0000E+00  0.0000E+00  0.2000E+01  0.2000E+01
    -11.955  0.0000E+00  0.0000E+00  0.2000E+01  0.2000E+01
    -11.929  0.0000E+00  0.0000E+00  0.2000E+01  0.2000E+01
    -11.903  0.0000E+00  0.0000E+00  0.2000E+01  0.2000E+01
    -11.877  0.0000E+00  0.0000E+00  0.2000E+01  0.2000E+01
    -11.851  0.0000E+00  0.0000E+00  0.2000E+01  0.2000E+01
    -11.825  0.0000E+00  0.0000E+00  0.2000E+01  0.2000E+01
    -11.799  0.0000E+00  0.0000E+00  0.2000E+01  0.2000E+01
    -11.773  0.0000E+00  0.0000E+00  0.2000E+01  0.2000E+01
    -11.747  0.0000E+00  0.0000E+00  0.2000E+01  0.2000E+01
    -11.721  0.0000E+00  0.0000E+00  0.2000E+01  0.2000E+01
    -11.695  0.0000E+00  0.0000E+00  0.2000E+01  0.2000E+01
    -11.669  0.0000E+00  0.0000E+00  0.2000E+01  0.2000E+01
    -11.644  0.0000E+00  0.0000E+00  0.2000E+01  0.2000E+01
    -11.618  0.0000E+00  0.0000E+00  0.2000E+01  0.2000E+01
    -11.592  0.0000E+00  0.0000E+00  0.2000E+01  0.2000E+01
    -11.566  0.0000E+00  0.0000E+00  0.2000E+01  0.2000E+01
    -11.540  0.0000E+00  0.0000E+00  0.2000E+01  0.2000E+01
    -11.514  0.0000E+00  0.0000E+00  0.2000E+01  0.2000E+01
    -11.488  0.0000E+00  0.0000E+00  0.2000E+01  0.2000E+01
    -11.462  0.0000E+00  0.0000E+00  0.2000E+01  0.2000E+01
    -11.436  0.0000E+00  0.0000E+00  0.2000E+01  0.2000E+01
    -11.410  0.0000E+00  0.0000E+00  0.2000E+01  0.2000E+01
    -11.384  0.0000E+00  0.0000E+00  0.2000E+01  0.2000E+01
    -11.358  0.0000E+00  0.0000E+00  0.2000E+01  0.2000E+01
    -11.332  0.0000E+00  0.0000E+00  0.2000E+01  0.2000E+01
    -11.307  0.0000E+00  0.0000E+00  0.2000E+01  0.2000E+01
    -11.281  0.0000E+00  0.0000E+00  0.2000E+01  0.2000E+01
    -11.255  0.0000E+00  0.0000E+00  0.2000E+01  0.2000E+01
    -11.229  0.0000E+00  0.0000E+00  0.2000E+01  0.2000E+01
    -11.203  0.0000E+00  0.0000E+00  0.2000E+01  0.2000E+01
    -11.177  0.0000E+00  0.0000E+00  0.2000E+01  0.2000E+01
    -11.151  0.0000E+00  0.0000E+00  0.2000E+01  0.2000E+01
    -11.125  0.0000E+00  0.0000E+00  0.2000E+01  0.2000E+01
    -11.099  0.0000E+00  0.0000E+00  0.2000E+01  0.2000E+01
    -11.073  0.0000E+00  0.0000E+00  0.2000E+01  0.2000E+01
    -11.047  0.0000E+00  0.0000E+00  0.2000E+01  0.2000E+01
    -11.021  0.0000E+00  0.0000E+00  0.2000E+01  0.2000E+01
    -10.995  0.0000E+00  0.0000E+00  0.2000E+01  0.2000E+01
    -10.970  0.0000E+00  0.0000E+00  0.2000E+01  0.2000E+01
    -10.944  0.0000E+00  0.0000E+00  0.2000E+01  0.2000E+01
    -10.918  0.0000E+00  0.0000E+00  0.2000E+01  0.2000E+01
    -10.892  0.0000E+00  0.0000E+00  0.2000E+01  0.2000E+01
    -10.866  0.0000E+00  0.0000E+00  0.2000E+01  0.2000E+01
    -10.840  0.0000E+00  0.0000E+00  0.2000E+01  0.2000E+01
    -10.814  0.0000E+00  0.0000E+00  0.2000E+01  0.2000E+01
    -10.788  0.0000E+00  0.0000E+00  0.2000E+01  0.2000E+01
    -10.762  0.0000E+00  0.0000E+00  0.2000E+01  0.2000E+01
    -10.736  0.0000E+00  0.0000E+00  0.2000E+01  0.2000E+01
    -10.710  0.0000E+00  0.0000E+00  0.2000E+01  0.2000E+01
    -10.684  0.0000E+00  0.0000E+00  0.2000E+01  0.2000E+01
    -10.658  0.0000E+00  0.0000E+00  0.2000E+01  0.2000E+01
    -10.633  0.0000E+00  0.0000E+00  0.2000E+01  0.2000E+01
    -10.607  0.0000E+00  0.0000E+00  0.2000E+01  0.2000E+01
    -10.581  0.0000E+00  0.0000E+00  0.2000E+01  0.2000E+01
    -10.555  0.0000E+00  0.0000E+00  0.2000E+01  0.2000E+01
    -10.529  0.0000E+00  0.0000E+00  0.2000E+01  0.2000E+01
    -10.503  0.0000E+00  0.0000E+00  0.2000E+01  0.2000E+01
    -10.477  0.0000E+00  0.0000E+00  0.2000E+01  0.2000E+01
    -10.451  0.0000E+00  0.0000E+00  0.2000E+01  0.2000E+01
    -10.425  0.0000E+00  0.0000E+00  0.2000E+01  0.2000E+01
    -10.399  0.0000E+00  0.0000E+00  0.2000E+01  0.2000E+01
    -10.373  0.0000E+00  0.0000E+00  0.2000E+01  0.2000E+01
    -10.347  0.0000E+00  0.0000E+00  0.2000E+01  0.2000E+01
    -10.321  0.0000E+00  0.0000E+00  0.2000E+01  0.2000E+01
    -10.296  0.0000E+00  0.0000E+00  0.2000E+01  0.2000E+01
    -10.270  0.0000E+00  0.0000E+00  0.2000E+01  0.2000E+01
    -10.244  0.0000E+00  0.0000E+00  0.2000E+01  0.2000E+01
    -10.218  0.0000E+00  0.0000E+00  0.2000E+01  0.2000E+01
    -10.192  0.0000E+00  0.0000E+00  0.2000E+01  0.2000E+01
    -10.166  0.0000E+00  0.0000E+00  0.2000E+01  0.2000E+01
    -10.140  0.0000E+00  0.0000E+00  0.2000E+01  0.2000E+01
    -10.114  0.0000E+00  0.0000E+00  0.2000E+01  0.2000E+01
    -10.088  0.0000E+00  0.0000E+00  0.2000E+01  0.2000E+01
    -10.062  0.0000E+00  0.0000E+00  0.2000E+01  0.2000E+01
    -10.036  0.0000E+00  0.0000E+00  0.2000E+01  0.2000E+01
    -10.010  0.0000E+00  0.0000E+00  0.2000E+01  0.2000E+01
     -9.985  0.0000E+00  0.0000E+00  0.2000E+01  0.2000E+01
     -9.959  0.0000E+00  0.0000E+00  0.2000E+01  0.2000E+01
     -9.933  0.0000E+00  0.0000E+00  0.2000E+01  0.2000E+01
     -9.907  0.0000E+00  0.0000E+00  0.2000E+01  0.2000E+01
     -9.881  0.0000E+00  0.0000E+00  0.2000E+01  0.2000E+01
     -9.855  0.0000E+00  0.0000E+00  0.2000E+01  0.2000E+01
     -9.829  0.0000E+00  0.0000E+00  0.2000E+01  0.2000E+01
     -9.803  0.0000E+00  0.0000E+00  0.2000E+01  0.2000E+01
     -9.777  0.0000E+00  0.0000E+00  0.2000E+01  0.2000E+01
     -9.751  0.0000E+00  0.0000E+00  0.2000E+01  0.2000E+01
     -9.725  0.0000E+00  0.0000E+00  0.2000E+01  0.2000E+01
     -9.699  0.0000E+00  0.0000E+00  0.2000E+01  0.2000E+01
     -9.673  0.0000E+00  0.0000E+00  0.2000E+01  0.2000E+01
     -9.648  0.0000E+00  0.0000E+00  0.2000E+01  0.2000E+01
     -9.622  0.0000E+00  0.0000E+00  0.2000E+01  0.2000E+01
     -9.596  0.0000E+00  0.0000E+00  0.2000E+01  0.2000E+01
     -9.570  0.0000E+00  0.0000E+00  0.2000E+01  0.2000E+01
     -9.544  0.0000E+00  0.0000E+00  0.2000E+01  0.2000E+01
     -9.518  0.0000E+00  0.0000E+00  0.2000E+01  0.2000E+01
     -9.492  0.0000E+00  0.0000E+00  0.2000E+01  0.2000E+01
     -9.466  0.0000E+00  0.0000E+00  0.2000E+01  0.2000E+01
     -9.440  0.0000E+00  0.0000E+00  0.2000E+01  0.2000E+01
     -9.414  0.0000E+00  0.0000E+00  0.2000E+01  0.2000E+01
     -9.388  0.0000E+00  0.0000E+00  0.2000E+01  0.2000E+01
     -9.362  0.0000E+00  0.0000E+00  0.2000E+01  0.2000E+01
     -9.336  0.0000E+00  0.0000E+00  0.2000E+01  0.2000E+01
     -9.311  0.0000E+00  0.0000E+00  0.2000E+01  0.2000E+01
     -9.285  0.0000E+00  0.0000E+00  0.2000E+01  0.2000E+01
     -9.259  0.0000E+00  0.0000E+00  0.2000E+01  0.2000E+01
     -9.233  0.0000E+00  0.0000E+00  0.2000E+01  0.2000E+01
     -9.207  0.0000E+00  0.0000E+00  0.2000E+01  0.2000E+01
     -9.181  0.0000E+00  0.0000E+00  0.2000E+01  0.2000E+01
     -9.155  0.0000E+00  0.0000E+00  0.2000E+01  0.2000E+01
     -9.129  0.0000E+00  0.0000E+00  0.2000E+01  0.2000E+01
     -9.103  0.0000E+00  0.0000E+00  0.2000E+01  0.2000E+01
     -9.077  0.0000E+00  0.0000E+00  0.2000E+01  0.2000E+01
     -9.051  0.0000E+00  0.0000E+00  0.2000E+01  0.2000E+01
     -9.025  0.0000E+00  0.0000E+00  0.2000E+01  0.2000E+01
     -8.999  0.0000E+00  0.0000E+00  0.2000E+01  0.2000E+01
     -8.974  0.0000E+00  0.0000E+00  0.2000E+01  0.2000E+01
     -8.948  0.0000E+00  0.0000E+00  0.2000E+01  0.2000E+01
     -8.922  0.0000E+00  0.0000E+00  0.2000E+01  0.2000E+01
     -8.896  0.0000E+00  0.0000E+00  0.2000E+01  0.2000E+01
     -8.870  0.0000E+00  0.0000E+00  0.2000E+01  0.2000E+01
     -8.844  0.0000E+00  0.0000E+00  0.2000E+01  0.2000E+01
     -8.818  0.0000E+00  0.0000E+00  0.2000E+01  0.2000E+01
     -8.792  0.0000E+00  0.0000E+00  0.2000E+01  0.2000E+01
     -8.766  0.0000E+00  0.0000E+00  0.2000E+01  0.2000E+01
     -8.740  0.0000E+00  0.0000E+00  0.2000E+01  0.2000E+01
     -8.714  0.0000E+00  0.0000E+00  0.2000E+01  0.2000E+01
     -8.688  0.0000E+00  0.0000E+00  0.2000E+01  0.2000E+01
     -8.662  0.0000E+00  0.0000E+00  0.2000E+01  0.2000E+01
     -8.637  0.4461E-16  0.0000E+00  0.2000E+01  0.2000E+01
     -8.611  0.8477E-15  0.0000E+00  0.2000E+01  0.2000E+01
     -8.585  0.1508E-13  0.0000E+00  0.2000E+01  0.2000E+01
     -8.559  0.2348E-12  0.0000E+00  0.2000E+01  0.2000E+01
     -8.533  0.3197E-11  0.0000E+00  0.2000E+01  0.2000E+01
     -8.507  0.3810E-10  0.0000E+00  0.2000E+01  0.2000E+01
     -8.481  0.3974E-09  0.0000E+00  0.2000E+01  0.2000E+01
     -8.455  0.3628E-08  0.0000E+00  0.2000E+01  0.2000E+01
     -8.429  0.2899E-07  0.1785E-15  0.2000E+01  0.2000E+01
     -8.403  0.2027E-06  0.3614E-14  0.2000E+01  0.2000E+01
     -8.377  0.1241E-05  0.5992E-13  0.2000E+01  0.2000E+01
     -8.351  0.6653E-05  0.8725E-12  0.2000E+01  0.2000E+01
     -8.325  0.3121E-04  0.1112E-10  0.2000E+01  0.2000E+01
     -8.300  0.1282E-03  0.1240E-09  0.2000E+01  0.2000E+01
     -8.274  0.4610E-03  0.1211E-08  0.2000E+01  0.2000E+01
     -8.248  0.1451E-02  0.1035E-07  0.2000E+01  0.2000E+01
     -8.222  0.3999E-02  0.7738E-07  0.2000E+01  0.2000E+01
     -8.196  0.9650E-02  0.5066E-06  0.2000E+01  0.2000E+01
     -8.170  0.2039E-01  0.2904E-05  0.2001E+01  0.2000E+01
     -8.144  0.3773E-01  0.1457E-04  0.2002E+01  0.2000E+01
     -8.118  0.6117E-01  0.6398E-04  0.2003E+01  0.2000E+01
     -8.092  0.8708E-01  0.2460E-03  0.2006E+01  0.2000E+01
     -8.066  0.1094E+00  0.8280E-03  0.2009E+01  0.2000E+01
     -8.040  0.1228E+00  0.2440E-02  0.2012E+01  0.2000E+01
     -8.014  0.1277E+00  0.6295E-02  0.2015E+01  0.2000E+01
     -7.988  0.1324E+00  0.1422E-01  0.2019E+01  0.2001E+01
     -7.963  0.1512E+00  0.2813E-01  0.2022E+01  0.2001E+01
     -7.937  0.1972E+00  0.4874E-01  0.2028E+01  0.2003E+01
     -7.911  0.2726E+00  0.7403E-01  0.2035E+01  0.2005E+01
     -7.885  0.3633E+00  0.9882E-01  0.2044E+01  0.2007E+01
     -7.859  0.4422E+00  0.1168E+00  0.2055E+01  0.2010E+01
     -7.833  0.4826E+00  0.1246E+00  0.2068E+01  0.2013E+01
     -7.807  0.4744E+00  0.1262E+00  0.2080E+01  0.2017E+01
     -7.781  0.4314E+00  0.1331E+00  0.2091E+01  0.2020E+01
     -7.755  0.3839E+00  0.1606E+00  0.2101E+01  0.2024E+01
     -7.729  0.3599E+00  0.2183E+00  0.2111E+01  0.2030E+01
     -7.703  0.3696E+00  0.3026E+00  0.2120E+01  0.2038E+01
     -7.677  0.4013E+00  0.3933E+00  0.2131E+01  0.2048E+01
     -7.651  0.4304E+00  0.4612E+00  0.2142E+01  0.2060E+01
     -7.626  0.4333E+00  0.4838E+00  0.2153E+01  0.2072E+01
     -7.600  0.3992E+00  0.4592E+00  0.2163E+01  0.2084E+01
     -7.574  0.3331E+00  0.4085E+00  0.2172E+01  0.2095E+01
     -7.548  0.2521E+00  0.3630E+00  0.2179E+01  0.2104E+01
     -7.522  0.1764E+00  0.3463E+00  0.2183E+01  0.2113E+01
     -7.496  0.1224E+00  0.3619E+00  0.2186E+01  0.2123E+01
     -7.470  0.9972E-01  0.3943E+00  0.2189E+01  0.2133E+01
     -7.444  0.1136E+00  0.4194E+00  0.2192E+01  0.2144E+01
     -7.418  0.1681E+00  0.4176E+00  0.2196E+01  0.2155E+01
     -7.392  0.2658E+00  0.3809E+00  0.2203E+01  0.2164E+01
     -7.366  0.4015E+00  0.3153E+00  0.2214E+01  0.2173E+01
     -7.340  0.5558E+00  0.2355E+00  0.2228E+01  0.2179E+01
     -7.315  0.6967E+00  0.1591E+00  0.2246E+01  0.2183E+01
     -7.289  0.7929E+00  0.1004E+00  0.2267E+01  0.2185E+01
     -7.263  0.8320E+00  0.6809E-01  0.2288E+01  0.2187E+01
     -7.237  0.8281E+00  0.6764E-01  0.2310E+01  0.2189E+01
     -7.211  0.8112E+00  0.1033E+00  0.2331E+01  0.2192E+01
     -7.185  0.8087E+00  0.1782E+00  0.2352E+01  0.2196E+01
     -7.159  0.8320E+00  0.2908E+00  0.2373E+01  0.2204E+01
     -7.133  0.8770E+00  0.4308E+00  0.2396E+01  0.2215E+01
     -7.107  0.9297E+00  0.5804E+00  0.2420E+01  0.2230E+01
     -7.081  0.9714E+00  0.7218E+00  0.2445E+01  0.2249E+01
     -7.055  0.9852E+00  0.8443E+00  0.2471E+01  0.2271E+01
     -7.029  0.9648E+00  0.9461E+00  0.2496E+01  0.2295E+01
     -7.003  0.9223E+00  0.1028E+01  0.2520E+01  0.2322E+01
     -6.978  0.8838E+00  0.1092E+01  0.2543E+01  0.2350E+01
     -6.952  0.8746E+00  0.1139E+01  0.2565E+01  0.2380E+01
     -6.926  0.9030E+00  0.1177E+01  0.2589E+01  0.2410E+01
     -6.900  0.9565E+00  0.1216E+01  0.2613E+01  0.2442E+01
     -6.874  0.1011E+01  0.1255E+01  0.2640E+01  0.2474E+01
     -6.848  0.1046E+01  0.1282E+01  0.2667E+01  0.2507E+01
     -6.822  0.1053E+01  0.1283E+01  0.2694E+01  0.2541E+01
     -6.796  0.1034E+01  0.1252E+01  0.2721E+01  0.2573E+01
     -6.770  0.1003E+01  0.1198E+01  0.2747E+01  0.2604E+01
     -6.744  0.9882E+00  0.1135E+01  0.2772E+01  0.2634E+01
     -6.718  0.1028E+01  0.1074E+01  0.2799E+01  0.2662E+01
     -6.692  0.1156E+01  0.1017E+01  0.2829E+01  0.2688E+01
     -6.666  0.1380E+01  0.9673E+00  0.2865E+01  0.2713E+01
     -6.641  0.1661E+01  0.9305E+00  0.2908E+01  0.2737E+01
     -6.615  0.1920E+01  0.9132E+00  0.2958E+01  0.2761E+01
     -6.589  0.2078E+01  0.9199E+00  0.3012E+01  0.2785E+01
     -6.563  0.2099E+01  0.9504E+00  0.3066E+01  0.2809E+01
     -6.537  0.2003E+01  0.9969E+00  0.3118E+01  0.2835E+01
     -6.511  0.1849E+01  0.1046E+01  0.3166E+01  0.2862E+01
     -6.485  0.1686E+01  0.1086E+01  0.3210E+01  0.2890E+01
     -6.459  0.1526E+01  0.1114E+01  0.3249E+01  0.2919E+01
     -6.433  0.1355E+01  0.1147E+01  0.3284E+01  0.2949E+01
     -6.407  0.1156E+01  0.1212E+01  0.3314E+01  0.2980E+01
     -6.381  0.9334E+00  0.1322E+01  0.3338E+01  0.3015E+01
     -6.355  0.7200E+00  0.1463E+01  0.3357E+01  0.3053E+01
     -6.329  0.5578E+00  0.1584E+01  0.3372E+01  0.3094E+01
     -6.304  0.4821E+00  0.1628E+01  0.3384E+01  0.3136E+01
     -6.278  0.5087E+00  0.1564E+01  0.3397E+01  0.3176E+01
     -6.252  0.6272E+00  0.1408E+01  0.3413E+01  0.3213E+01
     -6.226  0.8018E+00  0.1212E+01  0.3434E+01  0.3244E+01
     -6.200  0.9794E+00  0.1030E+01  0.3460E+01  0.3271E+01
     -6.174  0.1107E+01  0.8892E+00  0.3488E+01  0.3294E+01
     -6.148  0.1149E+01  0.7889E+00  0.3518E+01  0.3314E+01
     -6.122  0.1100E+01  0.7155E+00  0.3547E+01  0.3333E+01
     -6.096  0.9844E+00  0.6618E+00  0.3572E+01  0.3350E+01
     -6.070  0.8441E+00  0.6327E+00  0.3594E+01  0.3367E+01
     -6.044  0.7253E+00  0.6364E+00  0.3613E+01  0.3383E+01
     -6.018  0.6614E+00  0.6714E+00  0.3630E+01  0.3400E+01
     -5.992  0.6619E+00  0.7193E+00  0.3647E+01  0.3419E+01
     -5.967  0.7073E+00  0.7516E+00  0.3665E+01  0.3439E+01
     -5.941  0.7584E+00  0.7459E+00  0.3685E+01  0.3458E+01
     -5.915  0.7780E+00  0.7027E+00  0.3705E+01  0.3476E+01
     -5.889  0.7550E+00  0.6492E+00  0.3725E+01  0.3493E+01
     -5.863  0.7135E+00  0.6243E+00  0.3743E+01  0.3509E+01
     -5.837  0.6960E+00  0.6540E+00  0.3761E+01  0.3526E+01
     -5.811  0.7327E+00  0.7348E+00  0.3780E+01  0.3545E+01
     -5.785  0.8182E+00  0.8351E+00  0.3802E+01  0.3567E+01
     -5.759  0.9144E+00  0.9139E+00  0.3825E+01  0.3590E+01
     -5.733  0.9765E+00  0.9415E+00  0.3851E+01  0.3615E+01
     -5.707  0.9825E+00  0.9085E+00  0.3876E+01  0.3638E+01
     -5.681  0.9454E+00  0.8219E+00  0.3901E+01  0.3660E+01
     -5.655  0.9006E+00  0.6972E+00  0.3924E+01  0.3678E+01
     -5.630  0.8821E+00  0.5555E+00  0.3947E+01  0.3692E+01
     -5.604  0.9056E+00  0.4241E+00  0.3970E+01  0.3703E+01
     -5.578  0.9673E+00  0.3330E+00  0.3995E+01  0.3712E+01
     -5.552  0.1053E+01  0.3070E+00  0.4023E+01  0.3720E+01
     -5.526  0.1147E+01  0.3557E+00  0.4052E+01  0.3729E+01
     -5.500  0.1233E+01  0.4667E+00  0.4084E+01  0.3741E+01
     -5.474  0.1294E+01  0.6078E+00  0.4118E+01  0.3757E+01
     -5.448  0.1321E+01  0.7378E+00  0.4152E+01  0.3776E+01
     -5.422  0.1317E+01  0.8247E+00  0.4186E+01  0.3797E+01
     -5.396  0.1304E+01  0.8591E+00  0.4220E+01  0.3820E+01
     -5.370  0.1317E+01  0.8566E+00  0.4254E+01  0.3842E+01
     -5.344  0.1394E+01  0.8445E+00  0.4290E+01  0.3864E+01
     -5.318  0.1550E+01  0.8447E+00  0.4331E+01  0.3886E+01
     -5.293  0.1768E+01  0.8617E+00  0.4376E+01  0.3908E+01
     -5.267  0.1994E+01  0.8832E+00  0.4428E+01  0.3931E+01
     -5.241  0.2159E+01  0.8899E+00  0.4484E+01  0.3954E+01
     -5.215  0.2205E+01  0.8700E+00  0.4541E+01  0.3976E+01
     -5.189  0.2107E+01  0.8279E+00  0.4596E+01  0.3998E+01
     -5.163  0.1881E+01  0.7822E+00  0.4645E+01  0.4018E+01
     -5.137  0.1580E+01  0.7536E+00  0.4686E+01  0.4038E+01
     -5.111  0.1278E+01  0.7562E+00  0.4719E+01  0.4057E+01
     -5.085  0.1036E+01  0.7979E+00  0.4745E+01  0.4078E+01
     -5.059  0.8891E+00  0.8862E+00  0.4769E+01  0.4101E+01
     -5.033  0.8340E+00  0.1027E+01  0.4790E+01  0.4128E+01
     -5.007  0.8434E+00  0.1213E+01  0.4812E+01  0.4159E+01
     -4.981  0.8883E+00  0.1410E+01  0.4835E+01  0.4196E+01
     -4.956  0.9521E+00  0.1566E+01  0.4860E+01  0.4236E+01
     -4.930  0.1026E+01  0.1632E+01  0.4886E+01  0.4279E+01
     -4.904  0.1097E+01  0.1585E+01  0.4915E+01  0.4320E+01
     -4.878  0.1140E+01  0.1440E+01  0.4944E+01  0.4357E+01
     -4.852  0.1134E+01  0.1236E+01  0.4974E+01  0.4389E+01