   32   32    1    2
  0.9700889E+02  0.1270020E-08  0.1222140E-08  0.2000000E-08  0.5000000E-15
  1.000000000000000E-004
  CAR 
 test                                    
    192    192    132
 
  0.0000000E+00  0.0000000E+00  0.0000000E+00  0.5208333E-02
    1      -14.423612    -14.434489   1.000000   1.000000
    2      -14.290528    -14.300497   1.000000   1.000000
    3      -13.911491    -13.930303   1.000000   1.000000
    4      -13.886055    -13.903590   1.000000   1.000000
    5      -13.547366    -13.604730   1.000000   1.000000
    6      -13.532431    -13.590887   1.000000   1.000000
    7      -13.446622    -13.503717   1.000000   1.000000
    8      -13.290527    -13.364939   1.000000   1.000000
    9      -12.943699    -13.047773   1.000000   1.000000
   10      -12.576825    -12.641571   1.000000   1.000000
   11      -12.528459    -12.600862   1.000000   1.000000
   12      -12.366693    -12.535018   1.000000   1.000000
   13      -12.315842    -12.391129   1.000000   1.000000
   14      -12.315818    -12.379578   1.000000   1.000000
   15      -12.213217    -12.291022   1.000000   1.000000
   16      -11.901179    -12.072167   1.000000   1.000000
   17      -11.783689    -11.894308   1.000000   1.000000
   18      -11.723005    -11.834864   1.000000   1.000000
   19      -11.712128    -11.819096   1.000000   1.000000
   20      -11.661008    -11.734827   1.000000   1.000000
   21      -11.554099    -11.589021   1.000000   1.000000
   22      -11.521439    -11.576652   1.000000   1.000000
   23      -11.466121    -11.504418   1.000000   1.000000
   24      -11.392270    -11.426392   1.000000   1.000000
   25       -6.656476     -6.481174   1.000000   1.000000
   26       -6.558919     -6.369858   1.000000   1.000000
   27       -6.359766     -6.173757   1.000000   1.000000
   28       -6.186811     -6.033448   1.000000   1.000000
   29       -6.135051     -5.952252   1.000000   1.000000
   30       -6.092603     -5.927905   1.000000   1.000000
   31       -6.063668     -5.914985   1.000000   1.000000
   32       -5.982333     -5.904900   1.000000   1.000000
   33       -5.929332     -5.892632   1.000000   1.000000
   34       -5.907258     -5.705522   1.000000   1.000000
   35       -5.898225     -5.595782   1.000000   1.000000
   36       -5.688004     -5.509705   1.000000   1.000000
   37       -5.604452     -5.465980   1.000000   1.000000
   38       -5.582694     -5.464447   1.000000   1.000000
   39       -5.377146     -5.260729   1.000000   1.000000
   40       -5.355839     -5.115935   1.000000   1.000000
   41       -5.205123     -5.097281   1.000000   1.000000
   42       -5.172500     -4.910579   1.000000   1.000000
   43       -5.022962     -4.844491   1.000000   1.000000
   44       -5.018482     -4.763865   1.000000   1.000000
   45       -4.952952     -4.714927   1.000000   1.000000
   46       -4.879533     -4.615252   1.000000   1.000000
   47       -4.773005     -4.599585   1.000000   1.000000
   48       -4.683215     -4.504339   1.000000   1.000000
   49       -4.662477     -4.416800   1.000000   1.000000
   50       -4.613723     -4.291801   1.000000   1.000000
   51       -4.502410     -4.174533   1.000000   1.000000
   52       -4.497523     -4.083624   1.000000   1.000000
   53       -4.446119     -4.067273   1.000000   1.000000
   54       -4.374265     -4.030732   1.000000   1.000000
   55       -4.366916     -4.019952   1.000000   1.000000
   56       -4.352611     -3.836289   1.000000   1.000000
   57       -4.351667     -3.836258   1.000000   1.000000
   58       -4.349295     -3.801649   1.000000   1.000000
   59       -4.225109     -3.742049   1.000000   1.000000
   60       -4.174702     -3.698407   1.000000   1.000000
   61       -4.139227     -3.690133   1.000000   1.000000
   62       -4.069452     -3.610641   1.000000   1.000000
   63       -4.047407     -3.523531   1.000000   1.000000
   64       -3.867437     -3.522601   1.000000   1.000000
   65       -3.831024     -3.433485   1.000000   1.000000
   66       -3.814996     -3.419588   1.000000   1.000000
   67       -3.808649     -3.315355   1.000000   1.000000
   68       -3.750949     -3.266356   1.000000   1.000000
   69       -3.726371     -3.191219   1.000000   1.000000
   70       -3.622395     -3.154768   1.000000   1.000000
   71       -3.578418     -3.105740   1.000000   1.000000
   72       -3.481802     -2.967853   1.000000   1.000000
   73       -3.478250     -2.873792   1.000000   1.000000
   74       -3.448004     -2.819922   1.000000   1.000000
   75       -3.428177     -2.786423   1.000000   1.000000
   76       -3.378163     -2.689704   1.000000   1.000000
   77       -3.277486     -2.620037   1.000000   1.000000
   78       -3.272270     -2.597131   1.000000   1.000000
   79       -3.230274     -2.389368   1.000000   1.000000
   80       -3.109821     -2.318075   1.000000   1.000000
   81       -3.072266     -2.313379   1.000000   1.000000
   82       -3.059327     -2.292975   1.000000   1.000000
   83       -3.025077     -2.230717   1.000000   1.000000
   84       -2.980540     -1.969289   1.000000   0.999713
   85       -2.963968     -1.790582   1.000000   0.820170
   86       -2.928982     -1.307616   1.000000   0.000000
   87       -2.928064     -1.303093   1.000000   0.000000
   88       -2.910313     -1.242367   1.000000   0.000000
   89       -2.836302     -1.211466   1.000000   0.000000
   90       -2.809872     -1.068339   1.000000   0.000000
   91       -2.798245     -0.913329   1.000000   0.000000
   92       -2.747567     -0.878439   1.000000   0.000000
   93       -2.730047     -0.755066   1.000000   0.000000
   94       -2.708690     -0.577927   1.000000   0.000000
   95       -2.671999     -0.546900   1.000000   0.000000
   96       -2.642779     -0.291062   1.000000   0.000000
   97       -2.634416     -0.254487   1.000000   0.000000
   98       -2.628168     -0.249673   1.000000   0.000000
   99       -2.586460     -0.244135   1.000000   0.000000
  100       -2.578973     -0.213280   1.000000   0.000000
  101       -2.495158     -0.159957   1.000000   0.000000
  102       -2.424017     -0.153784   1.000000   0.000000
  103       -2.370265     -0.064363   1.000000   0.000000
  104       -2.129471     -0.059470   1.000000   0.000000
  105       -2.099615      0.023944   1.000000   0.000000
  106       -2.068007      0.040058   0.999999   0.000000
  107       -1.998672      0.077879   0.999943   0.000000
  108       -1.738900      0.135686   0.573434   0.000000
  109       -1.427865      0.139109   0.000013   0.000000
  110       -1.358771      0.191294   0.000000   0.000000
  111       -1.263137      0.212290   0.000000   0.000000
  112       -1.210149      0.239007   0.000000   0.000000
  113       -1.079873      0.263972   0.000000   0.000000
  114       -1.077827      0.266954   0.000000   0.000000
  115       -0.995740      0.362947   0.000000   0.000000
  116       -0.817857      0.396237   0.000000   0.000000
  117       -0.805602      0.410411   0.000000   0.000000
  118       -0.758196      0.514743   0.000000   0.000000
  119       -0.682339      0.631162   0.000000   0.000000
  120       -0.606243      0.637123   0.000000   0.000000
  121       -0.606158      0.664145   0.000000   0.000000
  122       -0.577306      0.682544   0.000000   0.000000
  123       -0.490523      0.755430   0.000000   0.000000
  124       -0.380976      0.782465   0.000000   0.000000
  125       -0.305649      0.798578   0.000000   0.000000
  126       -0.156733      0.886151   0.000000   0.000000
  127       -0.153189      0.942088   0.000000   0.000000
  128       -0.115665      1.098473   0.000000   0.000000
  129       -0.097690      1.113642   0.000000   0.000000
  130       -0.038455      1.169555   0.000000   0.000000
  131       -0.023713      1.183397   0.000000   0.000000
  132        0.145006      1.251565   0.000000   0.000000
 
  0.3333333E-01  0.0000000E+00  0.0000000E+00  0.5208333E-02
    1      -14.423254    -14.434131   1.000000   1.000000
    2      -14.290883    -14.300857   1.000000   1.000000
    3      -13.911420    -13.930229   1.000000   1.000000
    4      -13.886124    -13.903663   1.000000   1.000000
    5      -13.546836    -13.604226   1.000000   1.000000
    6      -13.532502    -13.590947   1.000000   1.000000
    7      -13.447576    -13.504685   1.000000   1.000000
    8      -13.291522    -13.365842   1.000000   1.000000
    9      -12.941415    -13.045593   1.000000   1.000000
   10      -12.576894    -12.641707   1.000000   1.000000
   11      -12.528647    -12.601036   1.000000   1.000000
   12      -12.367486    -12.535652   1.000000   1.000000
   13      -12.315690    -12.390933   1.000000   1.000000
   14      -12.314238    -12.378277   1.000000   1.000000
   15      -12.213589    -12.291415   1.000000   1.000000
   16      -11.901821    -12.072470   1.000000   1.000000
   17      -11.784892    -11.894034   1.000000   1.000000
   18      -11.722848    -11.835882   1.000000   1.000000
   19      -11.712597    -11.819403   1.000000   1.000000
   20      -11.661371    -11.735583   1.000000   1.000000
   21      -11.552554    -11.587749   1.000000   1.000000
   22      -11.521380    -11.576452   1.000000   1.000000
   23      -11.466333    -11.504631   1.000000   1.000000
   24      -11.392402    -11.426586   1.000000   1.000000
   25       -6.655019     -6.479769   1.000000   1.000000
   26       -6.560679     -6.371779   1.000000   1.000000
   27       -6.356017     -6.169545   1.000000   1.000000
   28       -6.185873     -6.032335   1.000000   1.000000
   29       -6.137370     -5.960263   1.000000   1.000000
   30       -6.098200     -5.938627   1.000000   1.000000
   31       -6.065309     -5.918092   1.000000   1.000000
   32       -5.978747     -5.910933   1.000000   1.000000
   33       -5.948599     -5.868355   1.000000   1.000000
   34       -5.923582     -5.713535   1.000000   1.000000
   35       -5.852859     -5.579965   1.000000   1.000000
   36       -5.690964     -5.515070   1.000000   1.000000
   37       -5.603907     -5.463857   1.000000   1.000000
   38       -5.581452     -5.463078   1.000000   1.000000
   39       -5.378105     -5.261573   1.000000   1.000000
   40       -5.365292     -5.115772   1.000000   1.000000
   41       -5.203977     -5.109687   1.000000   1.000000
   42       -5.165739     -4.899773   1.000000   1.000000
   43       -5.024324     -4.846401   1.000000   1.000000
   44       -5.019154     -4.764708   1.000000   1.000000
   45       -4.953436     -4.716289   1.000000   1.000000
   46       -4.882265     -4.612467   1.000000   1.000000
   47       -4.772382     -4.602256   1.000000   1.000000
   48       -4.681170     -4.507716   1.000000   1.000000
   49       -4.672827     -4.414168   1.000000   1.000000
   50       -4.603755     -4.290809   1.000000   1.000000
   51       -4.502825     -4.173308   1.000000   1.000000
   52       -4.498543     -4.081274   1.000000   1.000000
   53       -4.446965     -4.068637   1.000000   1.000000
   54       -4.384237     -4.033038   1.000000   1.000000
   55       -4.355911     -4.018483   1.000000   1.000000
   56       -4.354138     -3.838034   1.000000   1.000000
   57       -4.350104     -3.837455   1.000000   1.000000
   58       -4.348272     -3.801295   1.000000   1.000000
   59       -4.224784     -3.742065   1.000000   1.000000
   60       -4.173063     -3.697686   1.000000   1.000000
   61       -4.141600     -3.690615   1.000000   1.000000
   62       -4.067720     -3.608549   1.000000   1.000000
   63       -4.046975     -3.523593   1.000000   1.000000
   64       -3.869797     -3.522824   1.000000   1.000000
   65       -3.830234     -3.433256   1.000000   1.000000
   66       -3.813224     -3.423946   1.000000   1.000000
   67       -3.806761     -3.311786   1.000000   1.000000
   68       -3.757075     -3.268609   1.000000   1.000000
   69       -3.723691     -3.194183   1.000000   1.000000
   70       -3.623719     -3.157722   1.000000   1.000000
   71       -3.579681     -3.100921   1.000000   1.000000
   72       -3.482949     -2.969945   1.000000   1.000000
   73       -3.481558     -2.876149   1.000000   1.000000
   74       -3.445790     -2.817711   1.000000   1.000000
   75       -3.426662     -2.785903   1.000000   1.000000
   76       -3.377192     -2.689653   1.000000   1.000000
   77       -3.277369     -2.619136   1.000000   1.000000
   78       -3.272698     -2.597232   1.000000   1.000000
   79       -3.227972     -2.389950   1.000000   1.000000
   80       -3.110317     -2.351634   1.000000   1.000000
   81       -3.071438     -2.293042   1.000000   1.000000
   82       -3.059229     -2.279305   1.000000   1.000000
   83       -3.030297     -2.230600   1.000000   1.000000
   84       -2.980876     -1.968825   1.000000   0.999706
   85       -2.966753     -1.786701   1.000000   0.805416
   86       -2.928495     -1.305931   1.000000   0.000000
   87       -2.923627     -1.302765   1.000000   0.000000
   88       -2.907595     -1.241563   1.000000   0.000000
   89       -2.836714     -1.211783   1.000000   0.000000
   90       -2.810504     -1.067786   1.000000   0.000000
   91       -2.804597     -0.913777   1.000000   0.000000
   92       -2.749055     -0.877737   1.000000   0.000000
   93       -2.728266     -0.755120   1.000000   0.000000
   94       -2.709479     -0.580727   1.000000   0.000000
   95       -2.671933     -0.549287   1.000000   0.000000
   96       -2.645750     -0.290067   1.000000   0.000000
   97       -2.629183     -0.277531   1.000000   0.000000
   98       -2.627852     -0.242721   1.000000   0.000000
   99       -2.585766     -0.229367   1.000000   0.000000
  100       -2.579644     -0.211820   1.000000   0.000000
  101       -2.497658     -0.164640   1.000000   0.000000
  102       -2.423821     -0.148000   1.000000   0.000000
  103       -2.370067     -0.065231   1.000000   0.000000
  104       -2.127388     -0.059326   1.000000   0.000000
  105       -2.099232      0.023398   1.000000   0.000000
  106       -2.066537      0.036826   0.999999   0.000000
  107       -1.997949      0.083821   0.999941   0.000000
  108       -1.738664      0.135457   0.572123   0.000000
  109       -1.428086      0.139712   0.000013   0.000000
  110       -1.357516      0.191001   0.000000   0.000000
  111       -1.260250      0.212145   0.000000   0.000000
  112       -1.208092      0.238818   0.000000   0.000000
  113       -1.078756      0.263451   0.000000   0.000000
  114       -1.076947      0.267292   0.000000   0.000000
  115       -0.995456      0.363212   0.000000   0.000000
  116       -0.815452      0.394827   0.000000   0.000000
  117       -0.808682      0.410784   0.000000   0.000000
  118       -0.768239      0.514890   0.000000   0.000000
  119       -0.680118      0.630968   0.000000   0.000000
  120       -0.609564      0.633168   0.000000   0.000000
  121       -0.596311      0.665203   0.000000   0.000000
  122       -0.572483      0.682802   0.000000   0.000000
  123       -0.490787      0.755447   0.000000   0.000000
  124       -0.385899      0.786162   0.000000   0.000000
  125       -0.303916      0.798851   0.000000   0.000000
  126       -0.165652      0.884304   0.000000   0.000000
  127       -0.155005      0.939539   0.000000   0.000000
  128       -0.115432      1.098826   0.000000   0.000000
  129       -0.096795      1.120048   0.000000   0.000000
  130       -0.030409      1.142070   0.000000   0.000000
  131       -0.021707      1.169988   0.000000   0.000000
  132        0.146619      1.220808   0.000000   0.000000
 
  0.6666667E-01  0.0000000E+00  0.0000000E+00  0.5208333E-02
    1      -14.422184    -14.433060   1.000000   1.000000
    2      -14.291947    -14.301934   1.000000   1.000000
    3      -13.911208    -13.930008   1.000000   1.000000
    4      -13.886330    -13.903880   1.000000   1.000000
    5      -13.545246    -13.602714   1.000000   1.000000
    6      -13.532709    -13.591121   1.000000   1.000000
    7      -13.450360    -13.507508   1.000000   1.000000
    8      -13.294480    -13.368529   1.000000   1.000000
    9      -12.934650    -13.039143   1.000000   1.000000
   10      -12.577093    -12.642110   1.000000   1.000000
   11      -12.529204    -12.601550   1.000000   1.000000
   12      -12.369898    -12.537575   1.000000   1.000000
   13      -12.315038    -12.390344   1.000000   1.000000
   14      -12.309730    -12.374404   1.000000   1.000000
   15      -12.214698    -12.292584   1.000000   1.000000
   16      -11.903768    -12.073398   1.000000   1.000000
   17      -11.788299    -11.893212   1.000000   1.000000
   18      -11.722382    -11.838802   1.000000   1.000000
   19      -11.714002    -11.820322   1.000000   1.000000
   20      -11.662436    -11.737826   1.000000   1.000000
   21      -11.548090    -11.584049   1.000000   1.000000
   22      -11.521199    -11.575853   1.000000   1.000000
   23      -11.466966    -11.505267   1.000000   1.000000
   24      -11.392798    -11.427168   1.000000   1.000000
   25       -6.650676     -6.475592   1.000000   1.000000
   26       -6.565468     -6.376969   1.000000   1.000000
   27       -6.345296     -6.157505   1.000000   1.000000
   28       -6.183494     -6.029138   1.000000   1.000000
   29       -6.144959     -5.972567   1.000000   1.000000
   30       -6.113021     -5.970013   1.000000   1.000000
   31       -6.069327     -5.929357   1.000000   1.000000
   32       -5.987159     -5.898887   1.000000   1.000000
   33       -5.968893     -5.835468   1.000000   1.000000
   34       -5.908499     -5.727536   1.000000   1.000000
   35       -5.801192     -5.543643   1.000000   1.000000
   36       -5.699094     -5.528180   1.000000   1.000000
   37       -5.602907     -5.460165   1.000000   1.000000
   38       -5.577585     -5.458802   1.000000   1.000000
   39       -5.390123     -5.264126   1.000000   1.000000
   40       -5.381040     -5.147405   1.000000   1.000000
   41       -5.200833     -5.107717   1.000000   1.000000
   42       -5.149277     -4.875246   1.000000   1.000000
   43       -5.028321     -4.851816   1.000000   1.000000
   44       -5.020773     -4.766838   1.000000   1.000000
   45       -4.954617     -4.719716   1.000000   1.000000
   46       -4.890048     -4.610050   1.000000   1.000000
   47       -4.770608     -4.604465   1.000000   1.000000
   48       -4.693451     -4.517426   1.000000   1.000000
   49       -4.675303     -4.406616   1.000000   1.000000
   50       -4.584270     -4.287907   1.000000   1.000000
   51       -4.504001     -4.169851   1.000000   1.000000
   52       -4.501500     -4.074500   1.000000   1.000000
   53       -4.449668     -4.072636   1.000000   1.000000
   54       -4.395476     -4.039926   1.000000   1.000000
   55       -4.358433     -4.014006   1.000000   1.000000
   56       -4.347754     -3.843050   1.000000   1.000000
   57       -4.344885     -3.840620   1.000000   1.000000
   58       -4.339776     -3.800374   1.000000   1.000000
   59       -4.223861     -3.742180   1.000000   1.000000
   60       -4.168528     -3.695549   1.000000   1.000000
   61       -4.147909     -3.692020   1.000000   1.000000
   62       -4.063198     -3.602711   1.000000   1.000000
   63       -4.045542     -3.526259   1.000000   1.000000
   64       -3.876029     -3.521460   1.000000   1.000000
   65       -3.828101     -3.436001   1.000000   1.000000
   66       -3.808025     -3.431747   1.000000   1.000000
   67       -3.801989     -3.302659   1.000000   1.000000
   68       -3.770297     -3.275157   1.000000   1.000000
   69       -3.720731     -3.202563   1.000000   1.000000
   70       -3.627305     -3.164550   1.000000   1.000000
   71       -3.583003     -3.088568   1.000000   1.000000
   72       -3.491477     -2.976158   1.000000   1.000000
   73       -3.485792     -2.883273   1.000000   1.000000
   74       -3.439433     -2.811432   1.000000   1.000000
   75       -3.422192     -2.784340   1.000000   1.000000
   76       -3.374811     -2.689512   1.000000   1.000000
   77       -3.278162     -2.616467   1.000000   1.000000
   78       -3.272790     -2.597535   1.000000   1.000000
   79       -3.221312     -2.391718   1.000000   1.000000
   80       -3.111841     -2.386347   1.000000   1.000000
   81       -3.069107     -2.292972   1.000000   1.000000
   82       -3.058886     -2.243239   1.000000   1.000000
   83       -3.043621     -2.230308   1.000000   1.000000
   84       -2.981088     -1.967463   1.000000   0.999684
   85       -2.974057     -1.775102   1.000000   0.757127
   86       -2.929754     -1.301782   1.000000   0.000000
   87       -2.910701     -1.300892   1.000000   0.000000
   88       -2.900651     -1.239169   1.000000   0.000000
   89       -2.837933     -1.212709   1.000000   0.000000
   90       -2.821683     -1.066167   1.000000   0.000000
   91       -2.811450     -0.915091   1.000000   0.000000
   92       -2.752413     -0.875665   1.000000   0.000000
   93       -2.723325     -0.755311   1.000000   0.000000
   94       -2.712579     -0.588888   1.000000   0.000000
   95       -2.672010     -0.556361   1.000000   0.000000
   96       -2.653022     -0.306037   1.000000   0.000000
   97       -2.631649     -0.287098   1.000000   0.000000
   98       -2.612535     -0.238311   1.000000   0.000000
   99       -2.584006     -0.209553   1.000000   0.000000
  100       -2.581674     -0.207500   1.000000   0.000000
  101       -2.504822     -0.170386   1.000000   0.000000
  102       -2.423472     -0.138964   1.000000   0.000000
  103       -2.368950     -0.067525   1.000000   0.000000
  104       -2.121379     -0.059198   1.000000   0.000000
  105       -2.098114      0.021808   1.000000   0.000000
  106       -2.062163      0.031298   0.999999   0.000000
  107       -1.995850      0.097486   0.999933   0.000000
  108       -1.738003      0.134722   0.568453   0.000000
  109       -1.428522      0.141471   0.000013   0.000000
  110       -1.353909      0.190119   0.000000   0.000000
  111       -1.251877      0.211732   0.000000   0.000000
  112       -1.201967      0.238300   0.000000   0.000000
  113       -1.076913      0.261908   0.000000   0.000000
  114       -1.072573      0.268304   0.000000   0.000000
  115       -0.994697      0.364020   0.000000   0.000000
  116       -0.817218      0.390689   0.000000   0.000000
  117       -0.808460      0.411875   0.000000   0.000000
  118       -0.792628      0.515275   0.000000   0.000000
  119       -0.674210      0.620951   0.000000   0.000000
  120       -0.616278      0.631962   0.000000   0.000000
  121       -0.572234      0.668413   0.000000   0.000000
  122       -0.561531      0.683630   0.000000   0.000000
  123       -0.491570      0.755039   0.000000   0.000000
  124       -0.400459      0.796670   0.000000   0.000000
  125       -0.298564      0.799814   0.000000   0.000000
  126       -0.187754      0.879497   0.000000   0.000000
  127       -0.157265      0.935771   0.000000   0.000000
  128       -0.117157      1.107544   0.000000   0.000000
  129       -0.102765      1.109845   0.000000   0.000000
  130       -0.018529      1.133389   0.000000   0.000000
  131        0.035535      1.178751   0.000000   0.000000
  132        0.184170      1.379364   0.000000   0.000000
 
  0.1000000E+00  0.0000000E+00  0.0000000E+00  0.5208333E-02
    1      -14.420413    -14.431287   1.000000   1.000000
    2      -14.293712    -14.303719   1.000000   1.000000
    3      -13.910859    -13.929641   1.000000   1.000000
    4      -13.886671    -13.904239   1.000000   1.000000
    5      -13.542605    -13.600203   1.000000   1.000000
    6      -13.533035    -13.591393   1.000000   1.000000
    7      -13.454763    -13.511965   1.000000   1.000000
    8      -13.299317    -13.372930   1.000000   1.000000
    9      -12.923650    -13.028682   1.000000   1.000000
   10      -12.577408    -12.642771   1.000000   1.000000
   11      -12.530113    -12.602391   1.000000   1.000000
   12      -12.374030    -12.540841   1.000000   1.000000
   13      -12.313950    -12.389363   1.000000   1.000000
   14      -12.302329    -12.368051   1.000000   1.000000
   15      -12.216518    -12.294496   1.000000   1.000000
   16      -11.907085    -12.075003   1.000000   1.000000
   17      -11.793368    -11.891848   1.000000   1.000000
   18      -11.721621    -11.843262   1.000000   1.000000
   19      -11.716327    -11.821842   1.000000   1.000000
   20      -11.664135    -11.741483   1.000000   1.000000
   21      -11.541167    -11.578253   1.000000   1.000000
   22      -11.520888    -11.574856   1.000000   1.000000
   23      -11.468010    -11.506320   1.000000   1.000000
   24      -11.393461    -11.428137   1.000000   1.000000
   25       -6.643527     -6.468752   1.000000   1.000000
   26       -6.572126     -6.384107   1.000000   1.000000
   27       -6.328873     -6.139028   1.000000   1.000000
   28       -6.182727     -6.024539   1.000000   1.000000
   29       -6.157330     -6.001098   1.000000   1.000000
   30       -6.133441     -5.983412   1.000000   1.000000
   31       -6.074000     -5.955795   1.000000   1.000000
   32       -6.015281     -5.877562   1.000000   1.000000
   33       -5.954499     -5.802119   1.000000   1.000000
   34       -5.887781     -5.737930   1.000000   1.000000
   35       -5.749057     -5.545272   1.000000   1.000000
   36       -5.710754     -5.500986   1.000000   1.000000
   37       -5.602755     -5.455653   1.000000   1.000000
   38       -5.570590     -5.452228   1.000000   1.000000
   39       -5.424055     -5.268359   1.000000   1.000000
   40       -5.386545     -5.193228   1.000000   1.000000
   41       -5.196600     -5.099543   1.000000   1.000000
   42       -5.129840     -4.859945   1.000000   1.000000
   43       -5.034714     -4.849222   1.000000   1.000000
   44       -5.022260     -4.769193   1.000000   1.000000
   45       -4.955632     -4.722905   1.000000   1.000000
   46       -4.901681     -4.622212   1.000000   1.000000
   47       -4.767955     -4.592248   1.000000   1.000000
   48       -4.716836     -4.532365   1.000000   1.000000
   49       -4.666359     -4.395068   1.000000   1.000000
   50       -4.562753     -4.283277   1.000000   1.000000
   51       -4.506093     -4.164791   1.000000   1.000000
   52       -4.505738     -4.079001   1.000000   1.000000
   53       -4.454414     -4.064017   1.000000   1.000000
   54       -4.404978     -4.051212   1.000000   1.000000
   55       -4.363495     -4.006367   1.000000   1.000000
   56       -4.348252     -3.850858   1.000000   1.000000
   57       -4.335278     -3.844757   1.000000   1.000000
   58       -4.323896     -3.799130   1.000000   1.000000
   59       -4.222488     -3.742585   1.000000   1.000000
   60       -4.162150     -3.694240   1.000000   1.000000
   61       -4.156499     -3.692047   1.000000   1.000000
   62       -4.057136     -3.594294   1.000000   1.000000
   63       -4.042739     -3.530408   1.000000   1.000000
   64       -3.884594     -3.520747   1.000000   1.000000
   65       -3.825295     -3.452057   1.000000   1.000000
   66       -3.799773     -3.429130   1.000000   1.000000
   67       -3.796019     -3.290966   1.000000   1.000000
   68       -3.786046     -3.285264   1.000000   1.000000
   69       -3.721655     -3.214988   1.000000   1.000000
   70       -3.632158     -3.172724   1.000000   1.000000
   71       -3.587223     -3.071411   1.000000   1.000000
   72       -3.506141     -2.986293   1.000000   1.000000
   73       -3.490877     -2.895288   1.000000   1.000000
   74       -3.429635     -2.801997   1.000000   1.000000
   75       -3.414947     -2.781738   1.000000   1.000000
   76       -3.372180     -2.689320   1.000000   1.000000
   77       -3.281418     -2.612132   1.000000   1.000000
   78       -3.270854     -2.598048   1.000000   1.000000
   79       -3.210984     -2.419500   1.000000   1.000000
   80       -3.114495     -2.394501   1.000000   1.000000
   81       -3.065761     -2.292874   1.000000   1.000000
   82       -3.061206     -2.230006   1.000000   1.000000
   83       -3.057883     -2.207800   1.000000   1.000000
   84       -2.984411     -1.965300   1.000000   0.999647
   85       -2.980650     -1.755924   1.000000   0.664900
   86       -2.931849     -1.300140   1.000000   0.000000
   87       -2.894710     -1.292562   1.000000   0.000000
   88       -2.891518     -1.235244   1.000000   0.000000
   89       -2.843071     -1.214170   1.000000   0.000000
   90       -2.839911     -1.063600   1.000000   0.000000
   91       -2.812900     -0.917189   1.000000   0.000000
   92       -2.756794     -0.872330   1.000000   0.000000
   93       -2.720417     -0.755718   1.000000   0.000000
   94       -2.715972     -0.601773   1.000000   0.000000
   95       -2.673046     -0.567874   1.000000   0.000000
   96       -2.660047     -0.338097   1.000000   0.000000
   97       -2.635597     -0.282322   1.000000   0.000000
   98       -2.595108     -0.231615   1.000000   0.000000
   99       -2.585111     -0.200494   1.000000   0.000000
  100       -2.581640     -0.192121   1.000000   0.000000
  101       -2.515874     -0.175136   1.000000   0.000000
  102       -2.423475     -0.128780   1.000000   0.000000
  103       -2.365422     -0.070891   1.000000   0.000000
  104       -2.112118     -0.059312   1.000000   0.000000
  105       -2.096328      0.019305   1.000000   0.000000
  106       -2.054988      0.027707   0.999998   0.000000
  107       -1.992576      0.114491   0.999919   0.000000
  108       -1.737064      0.133359   0.563224   0.000000
  109       -1.428610      0.144240   0.000013   0.000000
  110       -1.348382      0.188635   0.000000   0.000000
  111       -1.238765      0.211116   0.000000   0.000000
  112       -1.191931      0.237587   0.000000   0.000000
  113       -1.073806      0.259423   0.000000   0.000000