  80  80   0   0
  0.1351172E+02  0.1026081E-08  0.1026213E-08  0.1026556E-08  0.5000000E-15
  1.000000000000000E-004
  CAR 
 unknown system                          
     11.42844040    -15.71664964  301      2.82096480      1.00000000
    -15.717  0.0000E+00  0.0000E+00
    -15.626  0.0000E+00  0.0000E+00
    -15.536  0.0000E+00  0.0000E+00
    -15.445  0.0000E+00  0.0000E+00
    -15.355  0.0000E+00  0.0000E+00
    -15.264  0.0000E+00  0.0000E+00
    -15.174  0.0000E+00  0.0000E+00
    -15.083  0.0000E+00  0.0000E+00
    -14.993  0.0000E+00  0.0000E+00
    -14.902  0.0000E+00  0.0000E+00
    -14.812  0.0000E+00  0.0000E+00
    -14.721  0.0000E+00  0.0000E+00
    -14.631  0.0000E+00  0.0000E+00
    -14.540  0.0000E+00  0.0000E+00
    -14.450  0.6986E+01  0.1643E+00
    -14.359  0.1245E+02  0.1270E+01
    -14.269  0.1049E+02  0.2112E+01
    -14.178  0.1743E+02  0.3951E+01
    -14.088  0.2279E+02  0.5741E+01
    -13.997  0.2478E+02  0.8242E+01
    -13.907  0.2300E+02  0.1067E+02
    -13.816  0.2290E+02  0.1379E+02
    -13.726  0.4785E+02  0.1666E+02
    -13.636  0.1876E+02  0.1961E+02
    -13.545  0.4106E+02  0.2339E+02
    -13.455  0.2709E+02  0.2808E+02
    -13.364  0.6774E+02  0.3405E+02
    -13.274  0.6910E+02  0.4011E+02
    -13.183  0.5835E+02  0.4612E+02
    -13.093  0.4409E+02  0.5208E+02
    -13.002  0.7735E+02  0.5736E+02
    -12.912  0.3022E+02  0.6247E+02
    -12.821  0.6601E+02  0.6836E+02
    -12.731  0.6734E+02  0.7591E+02
    -12.640  0.1338E+03  0.8254E+02
    -12.550  0.4976E+02  0.8885E+02
    -12.459  0.1446E+02  0.9397E+02
    -12.369  0.0000E+00  0.9600E+02
    -12.278  0.0000E+00  0.9600E+02
    -12.188  0.0000E+00  0.9600E+02
    -12.097  0.0000E+00  0.9600E+02
    -12.007  0.0000E+00  0.9600E+02
    -11.916  0.0000E+00  0.9600E+02
    -11.826  0.0000E+00  0.9600E+02
    -11.735  0.0000E+00  0.9600E+02
    -11.645  0.0000E+00  0.9600E+02
    -11.554  0.0000E+00  0.9600E+02
    -11.464  0.0000E+00  0.9600E+02
    -11.373  0.0000E+00  0.9600E+02
    -11.283  0.0000E+00  0.9600E+02
    -11.192  0.0000E+00  0.9600E+02
    -11.102  0.0000E+00  0.9600E+02
    -11.012  0.0000E+00  0.9600E+02
    -10.921  0.0000E+00  0.9600E+02
    -10.831  0.0000E+00  0.9600E+02
    -10.740  0.0000E+00  0.9600E+02
    -10.650  0.0000E+00  0.9600E+02
    -10.559  0.0000E+00  0.9600E+02
    -10.469  0.0000E+00  0.9600E+02
    -10.378  0.0000E+00  0.9600E+02
    -10.288  0.0000E+00  0.9600E+02
    -10.197  0.0000E+00  0.9600E+02
    -10.107  0.0000E+00  0.9600E+02
    -10.016  0.0000E+00  0.9600E+02
     -9.926  0.0000E+00  0.9600E+02
     -9.835  0.0000E+00  0.9600E+02
     -9.745  0.0000E+00  0.9600E+02
     -9.654  0.0000E+00  0.9600E+02
     -9.564  0.0000E+00  0.9600E+02
     -9.473  0.0000E+00  0.9600E+02
     -9.383  0.0000E+00  0.9600E+02
     -9.292  0.0000E+00  0.9600E+02
     -9.202  0.0000E+00  0.9600E+02
     -9.111  0.0000E+00  0.9600E+02
     -9.021  0.0000E+00  0.9600E+02
     -8.930  0.0000E+00  0.9600E+02
     -8.840  0.0000E+00  0.9600E+02
     -8.749  0.0000E+00  0.9600E+02
     -8.659  0.0000E+00  0.9600E+02
     -8.568  0.0000E+00  0.9600E+02
     -8.478  0.0000E+00  0.9600E+02
     -8.387  0.0000E+00  0.9600E+02
     -8.297  0.0000E+00  0.9600E+02
     -8.207  0.0000E+00  0.9600E+02
     -8.116  0.0000E+00  0.9600E+02
     -8.026  0.0000E+00  0.9600E+02
     -7.935  0.0000E+00  0.9600E+02
     -7.845  0.0000E+00  0.9600E+02
     -7.754  0.0000E+00  0.9600E+02
     -7.664  0.0000E+00  0.9600E+02
     -7.573  0.0000E+00  0.9600E+02
     -7.483  0.0000E+00  0.9600E+02
     -7.392  0.0000E+00  0.9600E+02
     -7.302  0.0000E+00  0.9600E+02
     -7.211  0.0000E+00  0.9600E+02
     -7.121  0.0000E+00  0.9600E+02
     -7.030  0.0000E+00  0.9600E+02
     -6.940  0.0000E+00  0.9600E+02
     -6.849  0.0000E+00  0.9600E+02
     -6.759  0.0000E+00  0.9600E+02
     -6.668  0.0000E+00  0.9600E+02
     -6.578  0.0000E+00  0.9600E+02
     -6.487  0.0000E+00  0.9600E+02
     -6.397  0.0000E+00  0.9600E+02
     -6.306  0.0000E+00  0.9600E+02
     -6.216  0.0000E+00  0.9600E+02
     -6.125  0.0000E+00  0.9600E+02
     -6.035  0.0000E+00  0.9600E+02
     -5.944  0.0000E+00  0.9600E+02
     -5.854  0.0000E+00  0.9600E+02
     -5.763  0.0000E+00  0.9600E+02
     -5.673  0.0000E+00  0.9600E+02
     -5.582  0.0000E+00  0.9600E+02
     -5.492  0.0000E+00  0.9600E+02
     -5.402  0.0000E+00  0.9600E+02
     -5.311  0.0000E+00  0.9600E+02
     -5.221  0.0000E+00  0.9600E+02
     -5.130  0.0000E+00  0.9600E+02
     -5.040  0.0000E+00  0.9600E+02
     -4.949  0.0000E+00  0.9600E+02
     -4.859  0.0000E+00  0.9600E+02
     -4.768  0.0000E+00  0.9600E+02
     -4.678  0.0000E+00  0.9600E+02
     -4.587  0.0000E+00  0.9600E+02
     -4.497  0.0000E+00  0.9600E+02
     -4.406  0.0000E+00  0.9600E+02
     -4.316  0.0000E+00  0.9600E+02
     -4.225  0.0000E+00  0.9600E+02
     -4.135  0.0000E+00  0.9600E+02
     -4.044  0.0000E+00  0.9600E+02
     -3.954  0.0000E+00  0.9600E+02
     -3.863  0.0000E+00  0.9600E+02
     -3.773  0.0000E+00  0.9600E+02
     -3.682  0.0000E+00  0.9600E+02
     -3.592  0.0000E+00  0.9600E+02
     -3.501  0.0000E+00  0.9600E+02
     -3.411  0.0000E+00  0.9600E+02
     -3.320  0.0000E+00  0.9600E+02
     -3.230  0.0000E+00  0.9600E+02
     -3.139  0.0000E+00  0.9600E+02
     -3.049  0.0000E+00  0.9600E+02
     -2.958  0.0000E+00  0.9600E+02
     -2.868  0.0000E+00  0.9600E+02
     -2.777  0.0000E+00  0.9600E+02
     -2.687  0.0000E+00  0.9600E+02
     -2.597  0.0000E+00  0.9600E+02
     -2.506  0.0000E+00  0.9600E+02
     -2.416  0.0000E+00  0.9600E+02
     -2.325  0.7154E+01  0.9619E+02
     -2.235  0.3344E+02  0.9786E+02
     -2.144  0.4936E+02  0.1017E+03
     -2.054  0.4874E+02  0.1060E+03
     -1.963  0.5622E+02  0.1112E+03
     -1.873  0.3857E+02  0.1151E+03
     -1.782  0.4157E+02  0.1193E+03
     -1.692  0.4065E+02  0.1230E+03
     -1.601  0.3536E+02  0.1264E+03
     -1.511  0.3294E+02  0.1297E+03
     -1.420  0.2974E+02  0.1323E+03
     -1.330  0.2317E+02  0.1347E+03
     -1.239  0.4065E+01  0.1360E+03
     -1.149  0.3667E+02  0.1375E+03
     -1.058  0.1234E+02  0.1395E+03
     -0.968  0.1951E+02  0.1411E+03
     -0.877  0.2262E+02  0.1425E+03
     -0.787  0.1431E+02  0.1441E+03
     -0.696  0.3985E+02  0.1482E+03
     -0.606  0.4893E+02  0.1524E+03
     -0.515  0.4377E+02  0.1564E+03
     -0.425  0.4178E+02  0.1607E+03
     -0.334  0.4903E+02  0.1646E+03
     -0.244  0.4257E+02  0.1684E+03
     -0.153  0.5600E+02  0.1729E+03
     -0.063  0.7458E+02  0.1778E+03
      0.028  0.5531E+02  0.1833E+03
      0.118  0.4709E+02  0.1883E+03
      0.208  0.3585E+02  0.1929E+03
      0.299  0.4621E+02  0.1967E+03
      0.389  0.5400E+02  0.2012E+03
      0.480  0.6717E+02  0.2059E+03
      0.570  0.5334E+02  0.2109E+03
      0.661  0.5021E+02  0.2163E+03
      0.751  0.4331E+02  0.2220E+03
      0.842  0.5182E+02  0.2277E+03
      0.932  0.7091E+02  0.2333E+03
      1.023  0.7109E+02  0.2393E+03
      1.113  0.6877E+02  0.2454E+03
      1.204  0.6673E+02  0.2514E+03
      1.294  0.6141E+02  0.2571E+03
      1.385  0.9394E+02  0.2631E+03
      1.475  0.7555E+02  0.2690E+03
      1.566  0.7391E+02  0.2752E+03
      1.656  0.8028E+02  0.2821E+03
      1.747  0.8672E+02  0.2887E+03
      1.837  0.8756E+02  0.2953E+03
      1.928  0.6863E+02  0.3020E+03
      2.018  0.6297E+02  0.3083E+03
      2.109  0.7479E+02  0.3150E+03
      2.199  0.8041E+02  0.3216E+03
      2.290  0.7587E+02  0.3288E+03
      2.380  0.1006E+03  0.3372E+03
      2.471  0.1194E+03  0.3458E+03
      2.561  0.7268E+02  0.3556E+03
      2.652  0.8722E+02  0.3651E+03
      2.742  0.8504E+02  0.3745E+03
      2.832  0.7412E+02  0.3827E+03
      2.923  0.0000E+00  0.3840E+03
      3.013  0.0000E+00  0.3840E+03
      3.104  0.0000E+00  0.3840E+03
      3.194  0.0000E+00  0.3840E+03
      3.285  0.0000E+00  0.3840E+03
      3.375  0.0000E+00  0.3840E+03
      3.466  0.0000E+00  0.3840E+03
      3.556  0.0000E+00  0.3840E+03
      3.647  0.0000E+00  0.3840E+03
      3.737  0.0000E+00  0.3840E+03
      3.828  0.0000E+00  0.3840E+03
      3.918  0.0000E+00  0.3840E+03
      4.009  0.0000E+00  0.3840E+03
      4.099  0.0000E+00  0.3840E+03
      4.190  0.0000E+00  0.3840E+03
      4.280  0.0000E+00  0.3840E+03
      4.371  0.1952E+00  0.3840E+03
      4.461  0.3354E+00  0.3840E+03
      4.552  0.5038E+00  0.3841E+03
      4.642  0.7004E+00  0.3841E+03
      4.733  0.8400E+00  0.3842E+03
      4.823  0.9929E+00  0.3843E+03
      4.914  0.1148E+01  0.3844E+03
      5.004  0.1355E+01  0.3845E+03
      5.095  0.2025E+01  0.3847E+03
      5.185  0.2197E+01  0.3848E+03
      5.276  0.2142E+01  0.3850E+03
      5.366  0.1967E+01  0.3852E+03
      5.457  0.1828E+01  0.3854E+03
      5.547  0.1717E+01  0.3856E+03
      5.637  0.1742E+01  0.3858E+03
      5.728  0.2417E+01  0.3860E+03
      5.818  0.3103E+01  0.3862E+03
      5.909  0.3994E+01  0.3865E+03
      5.999  0.4587E+01  0.3869E+03
      6.090  0.3744E+01  0.3873E+03
      6.180  0.4503E+01  0.3877E+03
      6.271  0.4104E+01  0.3881E+03
      6.361  0.4503E+01  0.3885E+03
      6.452  0.4975E+01  0.3889E+03
      6.542  0.6871E+01  0.3894E+03
      6.633  0.6668E+01  0.3900E+03
      6.723  0.5631E+01  0.3906E+03
      6.814  0.8738E+01  0.3913E+03
      6.904  0.6773E+01  0.3921E+03
      6.995  0.4579E+01  0.3926E+03
      7.085  0.1244E+02  0.3934E+03
      7.176  0.8832E+01  0.3947E+03
      7.266  0.1635E+02  0.3955E+03
      7.357  0.1109E+02  0.3967E+03
      7.447  0.7946E+01  0.3980E+03
      7.538  0.1375E+02  0.4000E+03
      7.628  0.3367E+02  0.4023E+03
      7.719  0.2946E+02  0.4047E+03
      7.809  0.3196E+02  0.4071E+03
      7.900  0.2337E+02  0.4097E+03
      7.990  0.3355E+02  0.4123E+03
      8.081  0.2431E+02  0.4153E+03
      8.171  0.3622E+02  0.4185E+03
      8.262  0.4353E+02  0.4218E+03
      8.352  0.3744E+02  0.4252E+03
      8.442  0.3743E+02  0.4287E+03
      8.533  0.3285E+02  0.4319E+03
      8.623  0.2814E+02  0.4346E+03
      8.714  0.2778E+02  0.4370E+03
      8.804  0.3583E+02  0.4394E+03
      8.895  0.3109E+02  0.4415E+03
      8.985  0.2686E+02  0.4432E+03
      9.076  0.2713E+02  0.4453E+03
      9.166  0.2526E+02  0.4470E+03
      9.257  0.2848E+02  0.4491E+03
      9.347  0.2054E+02  0.4509E+03
      9.438  0.1373E+02  0.4525E+03
      9.528  0.1361E+02  0.4543E+03
      9.619  0.1026E+02  0.4559E+03
      9.709  0.2272E+02  0.4576E+03
      9.800  0.2257E+02  0.4589E+03
      9.890  0.2054E+02  0.4604E+03
      9.981  0.7587E+01  0.4620E+03
     10.071  0.1747E+02  0.4632E+03
     10.162  0.1348E+01  0.4640E+03
     10.252  0.0000E+00  0.4640E+03
     10.343  0.0000E+00  0.4640E+03
     10.433  0.0000E+00  0.4640E+03
     10.524  0.0000E+00  0.4640E+03
     10.614  0.0000E+00  0.4640E+03
     10.705  0.0000E+00  0.4640E+03
     10.795  0.0000E+00  0.4640E+03
     10.886  0.0000E+00  0.4640E+03
     10.976  0.0000E+00  0.4640E+03
     11.067  0.0000E+00  0.4640E+03
     11.157  0.0000E+00  0.4640E+03
     11.247  0.0000E+00  0.4640E+03
     11.338  0.0000E+00  0.4640E+03
     11.428  0.0000E+00  0.4640E+03
