   80   80    1    1
  0.1351172E+02  0.1026080E-08  0.1026213E-08  0.1026556E-08  0.5000000E-15
  1.000000000000000E-004
  CAR 
 unknown system                          
    382     96    232
 
  0.0000000E+00  0.0000000E+00  0.0000000E+00  0.1041667E-01
    1      -14.493540   1.000000
    2      -14.067866   1.000000
    3      -14.042650   1.000000
    4      -14.019738   1.000000
    5      -13.999979   1.000000
    6      -13.962466   1.000000
    7      -13.903138   1.000000
    8      -13.678728   1.000000
    9      -13.661462   1.000000
   10      -13.625435   1.000000
   11      -13.609748   1.000000
   12      -13.558654   1.000000
   13      -13.509484   1.000000
   14      -13.499873   1.000000
   15      -13.428912   1.000000
   16      -13.404301   1.000000
   17      -13.387679   1.000000
   18      -13.368864   1.000000
   19      -13.337886   1.000000
   20      -13.310296   1.000000
   21      -13.286896   1.000000
   22      -13.249075   1.000000
   23      -13.201020   1.000000
   24      -13.174129   1.000000
   25      -13.148487   1.000000
   26      -13.087518   1.000000
   27      -13.073966   1.000000
   28      -13.047543   1.000000
   29      -13.042455   1.000000
   30      -13.018271   1.000000
   31      -12.983225   1.000000
   32      -12.972243   1.000000
   33      -12.858154   1.000000
   34      -12.815933   1.000000
   35      -12.782499   1.000000
   36      -12.773917   1.000000
   37      -12.752468   1.000000
   38      -12.728567   1.000000
   39      -12.698034   1.000000
   40      -12.688430   1.000000
   41      -12.667726   1.000000
   42      -12.638450   1.000000
   43      -12.615742   1.000000
   44      -12.574954   1.000000
   45      -12.548298   1.000000
   46      -12.480534   1.000000
   47      -12.454362   1.000000
   48      -12.438376   1.000000
   49       -2.355107   1.000000
   50       -2.304249   1.000000
   51       -2.268794   1.000000
   52       -2.249649   1.000000
   53       -2.165410   1.000000
   54       -2.126647   1.000000
   55       -2.029922   1.000000
   56       -1.980063   1.000000
   57       -1.896306   1.000000
   58       -1.725755   1.000000
   59       -1.642959   1.000000
   60       -1.625534   1.000000
   61       -1.570576   1.000000
   62       -1.528072   1.000000
   63       -1.504113   1.000000
   64       -1.458680   1.000000
   65       -1.416383   1.000000
   66       -1.368933   1.000000
   67       -1.335195   1.000000
   68       -1.324853   1.000000
   69       -1.130173   1.000000
   70       -1.077857   1.000000
   71       -0.943816   1.000000
   72       -0.846761   1.000000
   73       -0.786477   1.000000
   74       -0.743060   1.000000
   75       -0.724486   1.000000
   76       -0.701465   1.000000
   77       -0.679791   1.000000
   78       -0.636708   1.000000
   79       -0.604044   1.000000
   80       -0.579245   1.000000
   81       -0.534990   1.000000
   82       -0.446163   1.000000
   83       -0.395784   1.000000
   84       -0.358948   1.000000
   85       -0.202307   1.000000
   86       -0.187054   1.000000
   87       -0.146659   1.000000
   88       -0.127075   1.000000
   89       -0.109082   1.000000
   90       -0.070415   1.000000
   91       -0.033457   1.000000
   92       -0.012320   1.000000
   93        0.005384   1.000000
   94        0.093687   1.000000
   95        0.114444   1.000000
   96        0.125570   1.000000
   97        0.157909   1.000000
   98        0.183328   1.000000
   99        0.230318   1.000000
  100        0.281932   1.000000
  101        0.297158   1.000000
  102        0.337436   1.000000
  103        0.396414   1.000000
  104        0.442331   1.000000
  105        0.456018   1.000000
  106        0.480748   1.000000
  107        0.563058   1.000000
  108        0.591617   1.000000
  109        0.652118   1.000000
  110        0.687864   1.000000
  111        0.760228   1.000000
  112        0.806471   1.000000
  113        0.835756   1.000000
  114        0.865541   1.000000
  115        0.896077   1.000000
  116        0.948862   1.000000
  117        0.989640   1.000000
  118        1.069567   1.000000
  119        1.089809   1.000000
  120        1.115989   1.000000
  121        1.146876   1.000000
  122        1.175168   1.000000
  123        1.189687   1.000000
  124        1.215867   1.000000
  125        1.235446   1.000000
  126        1.258146   1.000000
  127        1.275648   1.000000
  128        1.294196   1.000000
  129        1.315393   1.000000
  130        1.338927   1.000000
  131        1.345135   1.000000
  132        1.361472   1.000000
  133        1.376841   1.000000
  134        1.445562   1.000000
  135        1.466489   1.000000
  136        1.483826   1.000000
  137        1.503432   1.000000
  138        1.523547   1.000000
  139        1.534754   1.000000
  140        1.556303   1.000000
  141        1.604873   1.000000
  142        1.647654   1.000000
  143        1.674754   1.000000
  144        1.690604   1.000000
  145        1.749831   1.000000
  146        1.757203   1.000000
  147        1.813458   1.000000
  148        1.827962   1.000000
  149        1.867341   1.000000
  150        1.909175   1.000000
  151        1.945067   1.000000
  152        1.973025   1.000000
  153        1.983865   1.000000
  154        2.057240   1.000000
  155        2.074520   1.000000
  156        2.095975   1.000000
  157        2.135240   1.000000
  158        2.183606   1.000000
  159        2.194568   1.000000
  160        2.218553   1.000000
  161        2.233880   1.000000
  162        2.259206   1.000000
  163        2.301424   1.000000
  164        2.326070   1.000000
  165        2.331813   1.000000
  166        2.359857   1.000000
  167        2.379983   1.000000
  168        2.396526   1.000000
  169        2.413678   1.000000
  170        2.437168   1.000000
  171        2.462008   1.000000
  172        2.475588   1.000000
  173        2.495668   1.000000
  174        2.502525   1.000000
  175        2.515095   0.999999
  176        2.530852   0.999998
  177        2.551013   0.999993
  178        2.566469   0.999982
  179        2.568393   0.999979
  180        2.586964   0.999938
  181        2.597119   0.999890
  182        2.609820   0.999781
  183        2.627189   0.999463
  184        2.659401   0.997558
  185        2.666236   0.996717
  186        2.689518   0.991546
  187        2.708291   0.983136
  188        2.723402   0.971910
  189        2.769461   0.895834
  190        2.780792   0.863893
  191        2.790238   0.832574
  192        2.803934   0.779559
  193        4.237560   0.000000
  194        6.687050   0.000000
  195        6.739211   0.000000
  196        6.775896   0.000000
  197        6.829516   0.000000
  198        6.973734   0.000000
  199        7.198107   0.000000
  200        7.632800   0.000000
  201        7.644131   0.000000
  202        7.774184   0.000000
  203        7.787941   0.000000
  204        7.902051   0.000000
  205        7.971527   0.000000
  206        8.038265   0.000000
  207        8.039136   0.000000
  208        8.087682   0.000000
  209        8.111173   0.000000
  210        8.164347   0.000000
  211        8.193586   0.000000
  212        8.228797   0.000000
  213        8.241832   0.000000
  214        8.303081   0.000000
  215        8.343742   0.000000
  216        8.404896   0.000000
  217        8.444528   0.000000
  218        8.507430   0.000000
  219        8.556386   0.000000
  220        8.641758   0.000000
  221        8.670180   0.000000
  222        8.970711   0.000000
  223        9.062870   0.000000
  224        9.241335   0.000000
  225        9.275382   0.000000
  226        9.388571   0.000000
  227        9.433299   0.000000
  228        9.518493   0.000000
  229        9.601599   0.000000
  230        9.679320   0.000000
  231        9.822890   0.000000
  232       10.002692   0.000000
 
  0.3333333E-01 -0.3333333E-01  0.3333333E-01  0.1041667E-01
    1      -14.491804   1.000000
    2      -14.075545   1.000000
    3      -14.055519   1.000000
    4      -14.012722   1.000000
    5      -13.990235   1.000000
    6      -13.961875   1.000000
    7      -13.894971   1.000000
    8      -13.693074   1.000000
    9      -13.666192   1.000000
   10      -13.622746   1.000000
   11      -13.605878   1.000000
   12      -13.561036   1.000000
   13      -13.514381   1.000000
   14      -13.493499   1.000000
   15      -13.426409   1.000000
   16      -13.404563   1.000000
   17      -13.386523   1.000000
   18      -13.366679   1.000000
   19      -13.338818   1.000000
   20      -13.306277   1.000000
   21      -13.285497   1.000000
   22      -13.248800   1.000000
   23      -13.202474   1.000000
   24      -13.180474   1.000000
   25      -13.144946   1.000000
   26      -13.088936   1.000000
   27      -13.074027   1.000000
   28      -13.048288   1.000000
   29      -13.041458   1.000000
   30      -13.016993   1.000000
   31      -12.981787   1.000000
   32      -12.969794   1.000000
   33      -12.858809   1.000000
   34      -12.818268   1.000000
   35      -12.782248   1.000000
   36      -12.774979   1.000000
   37      -12.751583   1.000000
   38      -12.728037   1.000000
   39      -12.699031   1.000000
   40      -12.689112   1.000000
   41      -12.667378   1.000000
   42      -12.637881   1.000000
   43      -12.616583   1.000000
   44      -12.574975   1.000000
   45      -12.547769   1.000000
   46      -12.480913   1.000000
   47      -12.455016   1.000000
   48      -12.438676   1.000000
   49       -2.352966   1.000000
   50       -2.301950   1.000000
   51       -2.266831   1.000000
   52       -2.248248   1.000000
   53       -2.163998   1.000000
   54       -2.125511   1.000000
   55       -2.029958   1.000000
   56       -1.980090   1.000000
   57       -1.896863   1.000000
   58       -1.731877   1.000000
   59       -1.648488   1.000000
   60       -1.629173   1.000000
   61       -1.574420   1.000000
   62       -1.534725   1.000000
   63       -1.502454   1.000000
   64       -1.459687   1.000000
   65       -1.416455   1.000000
   66       -1.373152   1.000000
   67       -1.336230   1.000000
   68       -1.306948   1.000000
   69       -1.148586   1.000000
   70       -1.056720   1.000000
   71       -0.964045   1.000000
   72       -0.884951   1.000000
   73       -0.769307   1.000000
   74       -0.724465   1.000000
   75       -0.712627   1.000000
   76       -0.701715   1.000000
   77       -0.673123   1.000000
   78       -0.634007   1.000000
   79       -0.602118   1.000000
   80       -0.575778   1.000000
   81       -0.537465   1.000000
   82       -0.445959   1.000000
   83       -0.393521   1.000000
   84       -0.358726   1.000000
   85       -0.203975   1.000000
   86       -0.195478   1.000000
   87       -0.143820   1.000000
   88       -0.132535   1.000000
   89       -0.109063   1.000000
   90       -0.071202   1.000000
   91       -0.028333   1.000000
   92       -0.008008   1.000000
   93        0.011680   1.000000
   94        0.093247   1.000000
   95        0.110713   1.000000
   96        0.126785   1.000000
   97        0.164625   1.000000
   98        0.187329   1.000000
   99        0.232193   1.000000
  100        0.282884   1.000000
  101        0.298833   1.000000
  102        0.341002   1.000000
  103        0.402300   1.000000
  104        0.441246   1.000000
  105        0.458577   1.000000
  106        0.486267   1.000000
  107        0.554206   1.000000
  108        0.597732   1.000000
  109        0.645615   1.000000
  110        0.685450   1.000000
  111        0.751808   1.000000
  112        0.801707   1.000000
  113        0.844053   1.000000
  114        0.868750   1.000000
  115        0.894940   1.000000
  116        0.950117   1.000000
  117        0.989818   1.000000
  118        1.061075   1.000000
  119        1.086716   1.000000
  120        1.111583   1.000000
  121        1.141795   1.000000
  122        1.165944   1.000000
  123        1.190885   1.000000
  124        1.214659   1.000000
  125        1.226158   1.000000
  126        1.259429   1.000000
  127        1.278155   1.000000
  128        1.296889   1.000000
  129        1.312183   1.000000
  130        1.335082   1.000000
  131        1.343959   1.000000
  132        1.365383   1.000000
  133        1.382072   1.000000
  134        1.446937   1.000000
  135        1.469965   1.000000
  136        1.488332   1.000000
  137        1.509264   1.000000
  138        1.524728   1.000000
  139        1.539757   1.000000
  140        1.555201   1.000000
  141        1.607945   1.000000
  142        1.643862   1.000000
  143        1.669686   1.000000
  144        1.698245   1.000000
  145        1.749295   1.000000
  146        1.757430   1.000000
  147        1.814066   1.000000
  148        1.826706   1.000000
  149        1.869296   1.000000
  150        1.905036   1.000000
  151        1.950445   1.000000
  152        1.973080   1.000000
  153        1.984612   1.000000
  154        2.051225   1.000000
  155        2.074570   1.000000
  156        2.096141   1.000000
  157        2.132324   1.000000
  158        2.176789   1.000000
  159        2.189136   1.000000
  160        2.223595   1.000000
  161        2.233737   1.000000
  162        2.261241   1.000000
  163        2.298805   1.000000
  164        2.321492   1.000000
  165        2.335192   1.000000
  166        2.361948   1.000000
  167        2.377865   1.000000
  168        2.395451   1.000000
  169        2.410408   1.000000
  170        2.435998   1.000000
  171        2.460321   1.000000
  172        2.476514   1.000000
  173        2.493198   1.000000
  174        2.501729   1.000000
  175        2.516904   0.999999
  176        2.534244   0.999998
  177        2.550963   0.999993
  178        2.562775   0.999986
  179        2.567916   0.999980
  180        2.585448   0.999943
  181        2.596760   0.999892
  182        2.609307   0.999787
  183        2.628979   0.999413
  184        2.658060   0.997699
  185        2.665098   0.996873
  186        2.688549   0.991858
  187        2.706698   0.984059
  188        2.725530   0.969910
  189        2.767733   0.900200
  190        2.780886   0.863608
  191        2.789717   0.834420
  192        2.805103   0.774620
  193        4.259619   0.000000
  194        6.646280   0.000000
  195        6.670253   0.000000
  196        6.841116   0.000000
  197        6.878649   0.000000
  198        6.955446   0.000000
  199        7.231328   0.000000
  200        7.627582   0.000000
  201        7.649315   0.000000
  202        7.772140   0.000000
  203        7.785698   0.000000
  204        7.891945   0.000000
  205        7.952907   0.000000
  206        8.015347   0.000000
  207        8.045047   0.000000
  208        8.093729   0.000000
  209        8.123342   0.000000
  210        8.137080   0.000000
  211        8.221915   0.000000
  212        8.248867   0.000000
  213        8.264925   0.000000
  214        8.308561   0.000000
  215        8.370429   0.000000
  216        8.418499   0.000000
  217        8.441609   0.000000
  218        8.517358   0.000000
  219        8.542566   0.000000
  220        8.641438   0.000000
  221        8.764229   0.000000
  222        8.989480   0.000000
  223        9.174894   0.000000
  224        9.263097   0.000000
  225        9.359363   0.000000
  226        9.457896   0.000000
  227        9.468643   0.000000
  228        9.535042   0.000000
  229        9.628590   0.000000
  230        9.820765   0.000000
  231        9.948464   0.000000
  232        9.980167   0.000000
 
  0.6666667E-01 -0.6666667E-01  0.6666667E-01  0.1041667E-01
    1      -14.486531   1.000000
    2      -14.091461   1.000000
    3      -14.075371   1.000000
    4      -14.014738   1.000000
    5      -13.968269   1.000000
    6      -13.949803   1.000000
    7      -13.876056   1.000000
    8      -13.723500   1.000000
    9      -13.677132   1.000000
   10      -13.632392   1.000000
   11      -13.590252   1.000000
   12      -13.564236   1.000000
   13      -13.525119   1.000000
   14      -13.481170   1.000000
   15      -13.421755   1.000000
   16      -13.404129   1.000000
   17      -13.382078   1.000000
   18      -13.362083   1.000000
   19      -13.339697   1.000000
   20      -13.297023   1.000000
   21      -13.282101   1.000000
   22      -13.247460   1.000000
   23      -13.207575   1.000000
   24      -13.189538   1.000000
   25      -13.140814   1.000000
   26      -13.092807   1.000000
   27      -13.074320   1.000000
   28      -13.049907   1.000000
   29      -13.037874   1.000000
   30      -13.013190   1.000000
   31      -12.978153   1.000000
   32      -12.962919   1.000000
   33      -12.860637   1.000000
   34      -12.824210   1.000000
   35      -12.781955   1.000000
   36      -12.777789   1.000000
   37      -12.749251   1.000000
   38      -12.726788   1.000000
   39      -12.701818   1.000000
   40      -12.690567   1.000000
   41      -12.666771   1.000000
   42      -12.636253   1.000000
   43      -12.618773   1.000000
   44      -12.575124   1.000000
   45      -12.546058   1.000000
   46      -12.482151   1.000000
   47      -12.456808   1.000000
   48      -12.439489   1.000000
   49       -2.346566   1.000000
   50       -2.295079   1.000000
   51       -2.261004   1.000000
   52       -2.244000   1.000000
   53       -2.159794   1.000000
   54       -2.122090   1.000000
   55       -2.030013   1.000000
   56       -1.980180   1.000000
   57       -1.898539   1.000000
   58       -1.749013   1.000000
   59       -1.667608   1.000000
   60       -1.633504   1.000000
   61       -1.585490   1.000000
   62       -1.546984   1.000000
   63       -1.510149   1.000000
   64       -1.460054   1.000000
   65       -1.416173   1.000000
   66       -1.378464   1.000000
   67       -1.329407   1.000000
   68       -1.278706   1.000000
   69       -1.172508   1.000000
   70       -1.036493   1.000000
   71       -0.996719   1.000000
   72       -0.945376   1.000000
   73       -0.748523   1.000000
   74       -0.714014   1.000000
   75       -0.700713   1.000000
   76       -0.676947   1.000000
   77       -0.653153   1.000000
   78       -0.624415   1.000000
   79       -0.593589   1.000000
   80       -0.566577   1.000000
   81       -0.538282   1.000000
   82       -0.446601   1.000000
   83       -0.387829   1.000000
   84       -0.357123   1.000000
   85       -0.220840   1.000000
   86       -0.200369   1.000000
   87       -0.148920   1.000000
   88       -0.130575   1.000000
   89       -0.111993   1.000000
   90       -0.072928   1.000000
   91       -0.025524   1.000000
   92        0.005674   1.000000
   93        0.030102   1.000000
   94        0.096951   1.000000
   95        0.102678   1.000000
   96        0.132086   1.000000
   97        0.175382   1.000000
   98        0.200759   1.000000
   99        0.229343   1.000000
  100        0.291578   1.000000
  101        0.309953   1.000000
  102        0.348931   1.000000
  103        0.413904   1.000000
  104        0.442551   1.000000
  105        0.465430   1.000000
  106        0.497727   1.000000
  107        0.543059   1.000000
  108        0.597927   1.000000
  109        0.635235   1.000000
  110        0.679158   1.000000
  111        0.739764   1.000000
  112        0.790158   1.000000
  113        0.848654   1.000000
  114        0.873869   1.000000
  115        0.895429   1.000000
  116        0.953470   1.000000
  117        0.992488   1.000000
  118        1.042792   1.000000
  119        1.075750   1.000000
  120        1.098685   1.000000
  121        1.127168   1.000000
  122        1.150709   1.000000
  123        1.187848   1.000000
  124        1.210586   1.000000
  125        1.219047   1.000000
  126        1.244712   1.000000
  127        1.287661   1.000000
  128        1.294626   1.000000
  129        1.299442   1.000000
  130        1.327095   1.000000
  131        1.354155   1.000000
  132        1.379419   1.000000
  133        1.392321   1.000000
  134        1.450084   1.000000
  135        1.464841   1.000000
  136        1.500244   1.000000
  137        1.508886   1.000000
  138        1.527331   1.000000
  139        1.555835   1.000000
  140        1.570886   1.000000
  141        1.616720   1.000000
  142        1.641135   1.000000
  143        1.665275   1.000000
  144        1.707043   1.000000
  145        1.745797   1.000000
  146        1.761691   1.000000
  147        1.809622   1.000000
  148        1.829014   1.000000
  149        1.872117   1.000000
  150        1.899182   1.000000
  151        1.954669   1.000000
  152        1.971932   1.000000
  153        1.990867   1.000000
  154        2.036579   1.000000
  155        2.073270   1.000000
  156        2.095439   1.000000
  157        2.120902   1.000000
  158        2.160079   1.000000
  159        2.182891   1.000000
  160        2.223337   1.000000
  161        2.238394   1.000000
  162        2.265413   1.000000
  163        2.293624   1.000000
  164        2.317087   1.000000
  165        2.338038   1.000000
  166        2.364757   1.000000
  167        2.372470   1.000000
  168        2.390719   1.000000
  169        2.404965   1.000000
  170        2.433813   1.000000
  171        2.455149   1.000000
  172        2.476330   1.000000
  173        2.491163   1.000000
  174        2.499708   1.000000
  175        2.522206   0.999999
  176        2.538241   0.999997
  177        2.548328   0.999994
  178        2.555386   0.999991
  179        2.567577   0.999981
  180        2.580247   0.999958
  181        2.593037   0.999913
  182        2.612866   0.999742
  183        2.632204   0.999311
  184        2.652566   0.998201
  185        2.663955   0.997024
  186        2.684026   0.993178
  187        2.707701   0.983483
  188        2.727849   0.967607
  189        2.766039   0.904331
  190        2.779358   0.868258
  191        2.789212   0.836198
  192        2.808048   0.761928
  193        4.323284   0.000000
  194        6.574588   0.000000
  195        6.592618   0.000000
  196        6.852920   0.000000
  197        6.963760   0.000000
  198        6.977723   0.000000
  199        7.303485   0.000000
  200        7.614388   0.000000
  201        7.650427   0.000000
  202        7.748747   0.000000
  203        7.786724   0.000000
  204        7.850742   0.000000
  205        7.904707   0.000000
  206        7.965319   0.000000
  207        8.033913   0.000000
  208        8.080751   0.000000
  209        8.134244   0.000000
  210        8.154981   0.000000
  211        8.185386   0.000000
  212        8.238291   0.000000
  213        8.253786   0.000000
  214        8.306544   0.000000
  215        8.347640   0.000000
  216        8.382167   0.000000
  217        8.449785   0.000000
  218        8.482878   0.000000
  219        8.540730   0.000000
  220        8.578867   0.000000
  221        8.757700   0.000000
  222        8.993300   0.000000
  223        9.097887   0.000000
  224        9.218633   0.000000
  225        9.291659   0.000000
  226        9.441424   0.000000
  227        9.539787   0.000000
  228        9.557409   0.000000
  229        9.608458   0.000000
  230        9.715606   0.000000
  231        9.869149   0.000000
  232        9.964891   0.000000
 
  0.1000000E+00 -0.1000000E+00  0.1000000E+00  0.1041667E-01
    1      -14.477812   1.000000
    2      -14.108669   1.000000
    3      -14.094610   1.000000
    4      -14.027420   1.000000
    5      -13.942107   1.000000
    6      -13.925896   1.000000
    7      -13.853386   1.000000
    8      -13.758179   1.000000
    9      -13.697198   1.000000
   10      -13.642209   1.000000
   11      -13.582550   1.000000
   12      -13.565465   1.000000
   13      -13.531343   1.000000
   14      -13.471395   1.000000
   15      -13.419927   1.000000
   16      -13.401318   1.000000
   17      -13.374550   1.000000
   18      -13.358407   1.000000
   19      -13.338203   1.000000
   20      -13.288250   1.000000
   21      -13.278547   1.000000
   22      -13.244306   1.000000
   23      -13.215185   1.000000
   24      -13.191358   1.000000
   25      -13.139914   1.000000
   26      -13.098311   1.000000
   27      -13.076882   1.000000
   28      -13.050037   1.000000
   29      -13.031048   1.000000
   30      -13.008193   1.000000
   31      -12.973591   1.000000
   32      -12.953255   1.000000
   33      -12.863524   1.000000
   34      -12.831735   1.000000
   35      -12.784450   1.000000
   36      -12.779486   1.000000
   37      -12.747123   1.000000
   38      -12.725466   1.000000
   39      -12.705893   1.000000
   40      -12.691718   1.000000
   41      -12.666906   1.000000
   42      -12.634186   1.000000
   43      -12.621709   1.000000
   44      -12.575753   1.000000
   45      -12.543162   1.000000
   46      -12.484600   1.000000
   47      -12.459627   1.000000
   48      -12.440751   1.000000
   49       -2.335980   1.000000
   50       -2.283724   1.000000
   51       -2.251511   1.000000
   52       -2.236766   1.000000
   53       -2.152899   1.000000
   54       -2.116353   1.000000
   55       -2.029926   1.000000
   56       -1.980377   1.000000
   57       -1.901383   1.000000
   58       -1.774095   1.000000
   59       -1.693770   1.000000
   60       -1.638099   1.000000
   61       -1.603306   1.000000
   62       -1.561909   1.000000
   63       -1.526273   1.000000
   64       -1.466738   1.000000
   65       -1.411380   1.000000
   66       -1.385291   1.000000
   67       -1.323497   1.000000
   68       -1.257779   1.000000
   69       -1.179038   1.000000
   70       -1.079230   1.000000
   71       -1.021930   1.000000
   72       -0.953530   1.000000
   73       -0.742360   1.000000
   74       -0.708833   1.000000
   75       -0.680395   1.000000
   76       -0.663855   1.000000
   77       -0.633136   1.000000
   78       -0.605698   1.000000
   79       -0.584143   1.000000
   80       -0.547848   1.000000
   81       -0.520649   1.000000
   82       -0.448264   1.000000
   83       -0.382017   1.000000
   84       -0.351016   1.000000
   85       -0.244713   1.000000
   86       -0.199366   1.000000
   87       -0.161036   1.000000
   88       -0.128306   1.000000
   89       -0.107473   1.000000
   90       -0.073068   1.000000
   91       -0.025591   1.000000
   92        0.018359   1.000000
   93        0.049070   1.000000
   94        0.092343   1.000000
   95        0.109233   1.000000
   96        0.146185   1.000000
   97        0.187694   1.000000
   98        0.208425   1.000000
   99        0.231595   1.000000
  100        0.303589   1.000000
  101        0.335002   1.000000
  102        0.360229   1.000000
  103        0.424942   1.000000
  104        0.448027   1.000000
  105        0.469860   1.000000
  106        0.511105   1.000000
  107        0.540780   1.000000
  108        0.585382   1.000000
  109        0.634563   1.000000
  110        0.668939   1.000000
  111        0.737022   1.000000
  112        0.772746   1.000000
  113        0.835740   1.000000
  114        0.871769   1.000000
  115        0.901656   1.000000
  116        0.953750   1.000000
  117        0.998398   1.000000
  118        1.024591   1.000000
  119        1.064871   1.000000
  120        1.080826   1.000000
  121        1.107338   1.000000
  122        1.134751   1.000000
  123        1.178591   1.000000
  124        1.197118   1.000000
  125        1.217838   1.000000
  126        1.231368   1.000000
  127        1.267695   1.000000
  128        1.290507   1.000000
  129        1.304263   1.000000
  130        1.322662   1.000000
  131        1.368817   1.000000
  132        1.388941   1.000000
  133        1.410875   1.000000
  134        1.438537   1.000000
  135        1.457522   1.000000
  136        1.496184   1.000000
  137        1.518020   1.000000
  138        1.530716   1.000000
  139        1.575320   1.000000
  140        1.604383   1.000000
  141        1.625797   1.000000
  142        1.648063   1.000000
  143        1.667883   1.000000
  144        1.717260   1.000000
  145        1.744959   1.000000
  146        1.764266   1.000000
  147        1.799916   1.000000
  148        1.833730   1.000000
  149        1.871695   1.000000
  150        1.895553   1.000000
  151        1.952403   1.000000
  152        1.965964   1.000000
  153        1.998940   1.000000
  154        2.017884   1.000000
  155        2.063276   1.000000
  156        2.091710   1.000000
  157        2.107949   1.000000
  158        2.146702   1.000000
  159        2.175107   1.000000
  160        2.216155   1.000000
  161        2.241447   1.000000
  162        2.270619   1.000000
  163        2.288492   1.000000
  164        2.315793   1.000000
  165        2.338495   1.000000
  166        2.362166   1.000000
  167        2.369551   1.000000
  168        2.381514   1.000000
  169        2.402590   1.000000
  170        2.427469   1.000000
  171        2.450993   1.000000
  172        2.473618   1.000000
  173        2.490868   1.000000
  174        2.499781   1.000000
  175        2.524231   0.999999
  176        2.534772   0.999998
  177        2.543721   0.999996
  178        2.548101   0.999994
  179        2.564495   0.999984
  180        2.575256   0.999969
  181        2.593035   0.999913
  182        2.615296   0.999707
  183        2.635255   0.999201
  184        2.645913   0.998674
  185        2.663306   0.997106
  186        2.679164   0.994384
  187        2.712800   0.980285
  188        2.727973   0.967479
  189        2.767602   0.900520
  190        2.775963   0.878251
  191        2.789958   0.833562
  192        2.811602   0.746111
  193        4.422148   0.000000
  194        6.505387   0.000000
  195        6.523155   0.000000
  196        6.798405   0.000000
  197        7.052450   0.000000
  198        7.073173   0.000000
  199        7.389392   0.000000